<?xml version="1.0"?>
<VTKFile type="UnstructuredGrid"  version="0.1"  >
<UnstructuredGrid>
<Piece  NumberOfPoints="737" NumberOfCells="1376">
<Points>
<DataArray  type="Float64"  NumberOfComponents="3"  format="ascii">0 0 0  0 2 0  4 2 0  4 0 0  0 0.1249999999997431 0  0 0.2499999999995515 0  0 0.3749999999991878 0  0 0.4999999999988241 0  0 0.6249999999984651 0  0 0.7499999999981061 0  0 0.874999999997747 0  0 0.999999999997388 0  0 1.124999999997712 0  0 1.249999999998036 0  0 1.374999999998359 0  0 1.499999999998683 0  0 1.624999999999012 0  0 1.749999999999342 0  0 1.874999999999671 0  0.1249999999997626 2 0  0.2499999999994824 2 0  0.3749999999992888 2 0  0.4999999999990952 2 0  0.6249999999987335 2 0  0.7499999999983717 2 0  0.87499999999801 2 0  0.9999999999976482 2 0  1.124999999997284 2 0  1.249999999996919 2 0  1.374999999996555 2 0  1.49999999999619 2 0  1.624999999995837 2 0  1.749999999995483 2 0  1.87499999999513 2 0  1.999999999994776 2 0  2.124999999995095 2 0  2.249999999995413 2 0  2.374999999995731 2 0  2.49999999999605 2 0  2.624999999996379 2 0  2.749999999996708 2 0  2.874999999997037 2 0  2.999999999997367 2 0  3.124999999997696 2 0  3.249999999998025 2 0  3.374999999998354 2 0  3.499999999998683 2 0  3.624999999999012 2 0  3.749999999999341 2 0  3.87499999999967 2 0  4 1.875000000000123 0  4 1.750000000000209 0  4 1.625000000000461 0  4 1.500000000000693 0  4 1.375000000001536 0  4 1.250000000002256 0  4 1.125000000003229 0  4 1.000000000004118 0  4 0.8750000000036089 0  4 0.7500000000030995 0  4 0.6250000000025902 0  4 0.5000000000020808 0  4 0.3750000000015605 0  4 0.2500000000010403 0  4 0.12500000000052 0  3.874999999999586 0 0  3.749999999999274 0 0  3.624999999998618 0 0  3.499999999998004 0 0  3.374999999998717 0 0  3.249999999999506 0 0  3.125000000000414 0 0  3.000000000001386 0 0  2.875000000002339 0 0  2.750000000003406 0 0  2.625000000004116 0 0  2.500000000004855 0 0  2.375000000005834 0 0  2.250000000006474 0 0  2.125000000007378 0 0  2.000000000008237 0 0  1.875000000007738 0 0  1.750000000007239 0 0  1.625000000006741 0 0  1.500000000006242 0 0  1.375000000005722 0 0  1.250000000005202 0 0  1.125000000004682 0 0  1.000000000004162 0 0  0.8750000000036411 0 0  0.7500000000031211 0 0  0.625000000002601 0 0  0.500000000002081 0 0  0.3750000000015605 0 0  0.2500000000010405 0 0  0.12500000000052 0 0  2.751943738452744 0.4502303079023504 0  1.750000000006644 0.4330127018922776 0  1.24999999999692 1.566987298109043 0  2.198013603145998 1.55809283687899 0  3.247881315357668 1.576613977471344 0  0.7521186846436931 0.4233860225293321 0  3.604646881608647 0.7183803468350101 0  0.3953531183914658 1.281619653165416 0  1.25035311411272 0.4314082553323813 0  1.500058852358896 0.8445724375661612 0  1.989156378093928 0.8579334422883895 0  1.750000000009022 1.299038105676122 0  0.9973508174755198 0.8076485688783537 0  2.749999999997339 1.566987298107004 0  3.002717843603222 1.188508528991859 0  2.533455241124366 1.190277318175192 0  2.22583414908933 0.4214378737978327 0  3.279641263780507 0.389092528073727 0  3.552608346638475 1.213748434721428 0  0.7206826926270968 1.613777072928224 0  0.4473966578135999 0.7859714703715941 0  2.767860793511576 0.8832772111385303 0  1.749999999995483 1.694100648860432 0  1.258589614778837 1.151739544308598 0  3.633974596214294 0.3660254037857282 0  3.633974596214256 1.633974596214794 0  0.366025403785061 1.633974596214344 0  0.3660254037865152 0.3660254037856426 0  3.187282366407972 0.799919109919273 0  0.8210937919434733 1.200395787834862 0  2.382690224779792 0.8121957412458931 0  2.148692841347422 1.187388232457183 0  0.7223737376445598 0.7968100196249739 0  0.6342452248785366 0.993183629103228 0  0.9092223047094965 1.004022178356608 0  3.277663095120849 1.201128481856643 0  3.369945356523223 1.00683377232035 0  3.095000105005597 0.9942138194555659 0  0.8747347510596064 0.6155172957038428 0  0.5997576712286465 0.604678746450463 0  3.125299579480445 1.382561253231602 0  3.400244830998071 1.395181206096386 0  1.500000000002971 1.433012701892583 0  1.50429480739393 1.22538882499236 0  1.254294807387878 1.359363421208821 0  1.499999999996201 1.630543973484738 0  1.750000000002252 1.496569377268277 0  1.97400680157751 1.428565471277556 0  1.97400680157074 1.626096742869711 0  3.578627614123561 0.9660643907782188 0  3.395964624008309 0.7591497283771416 0  0.4213748881025329 1.033795561768505 0  0.6082234551674696 1.241007720500139 0  3.802323440804323 0.6091901734185454 0  3.802323440804323 0.8591901734195642 0  1.001235899378206 0.4273971389308567 0  1.12385196579412 0.6195284121053675 0  1.500176557059682 0.4322104786123294 0  1.375205983235808 0.6379903464492712 0  1.62502942618277 0.6387925697292194 0  2.876358921800281 1.377747913549431 0  2.768086542363794 1.189392923583525 0  2.641727620560853 1.378632308141098 0  1.625000000006443 0.2165063509461388 0  1.87500000000744 0.2165063509461388 0  2.474006801571669 1.562540067492997 0  2.365734422135182 1.374185077527091 0  0.1976765591957329 1.39080982658205 0  0.1976765591957329 1.140809826581402 0  1.375176557059481 0.2157041276661906 0  2.998940657677504 1.571800637789174 0  0.8760593423239273 0.2116930112646661 0  1.125176557058441 0.2157041276661906 0  2.112917074548784 0.2107189368989164 0  2.362917074547092 0.2107189368989164 0  3.373940657678175 1.788306988735672 0  3.123940657677517 1.788306988735672 0  2.874999999997353 1.783493649053502 0  2.349006801571024 1.779046418439495 0  2.624999999996695 1.783493649053502 0  1.248704834917208 0.8261105032222574 0  2.099006801570387 1.779046418439495 0  0.6260593423228871 0.2116930112646661 0  1.744607615226412 0.8512529399272754 0  1.869578189050286 0.6454730720903336 0  2.625971869228799 0.2251151539511752 0  2.488888943771037 0.4358340908500916 0  1.987917074547987 0.4272252878450552 0  1.625029426183959 1.071805271621142 0  1.869578189051475 1.078485773982256 0  1.374999999996555 1.783493649054522 0  1.124999999997284 1.783493649054522 0  2.875971869227065 0.2251151539511752 0  2.107495263591629 0.6396856580431112 0  3.015792501116626 0.4196614179880387 0  2.969613052430358 0.6250747089108117 0  3.233461815094239 0.5945058189965 0  0.9853413463120082 1.590382185518634 0  1.035546895970196 1.383691542971953 0  0.7708882422852851 1.407086430381543 0  2.75990226598216 0.6667537595204404 0  2.977571579959774 0.8415981605289016 0  1.039841703361155 1.17606766607173 0  2.17335322224671 1.372740534668087 0  1.949346420678222 1.243213169066653 0  3.776304173319237 1.106874217362773 0  3.776304173319237 1.35687421736106 0  3.139820631890947 0.1945462640368635 0  3.389820631889256 0.1945462640368635 0  0.2236983289068 0.892985735184491 0  0.2236983289068 0.6429857351852091 0  0.8603413463123726 1.806888536464112 0  0.610341346313096 1.806888536464112 0  1.874999999995129 1.847050324430216 0  1.379324233568866 0.9981559909373798 0  1.624999999995837 1.847050324430216 0  3.566987298106149 0.1830127018928641 0  3.816987298107147 0.1830127018928641 0  3.816987298107128 1.566987298107743 0  3.816987298107128 1.816987298107397 0  0.1830127018932576 0.1830127018928213 0  0.4330127018942981 0.1830127018928213 0  0.1830127018932576 0.4330127018922334 0  3.566987298106469 1.816987298107397 0  0.4330127018920781 1.816987298107172 0  0.1830127018925305 1.816987298107172 0  0.1830127018925305 1.566987298106514 0  3.816987298107147 0.4330127018939045 0  2.304262186934561 0.616816807521863 0  2.567316981616268 0.6312130245741218 0  2.575275509145684 0.8477364761922117 0  3.593291471426365 1.42386151546811 0  0.4067110308000575 0.5759984370786184 0  3.4568079299974 0.3775589659297276 0  0.5433540482060789 1.623875834571284 0  2.885289318557399 1.035892870065195 0  2.650658017317971 1.036777264656861 0  1.127970216127178 0.9796940565934761 0  3.61931073891147 0.5422028753103691 0  3.440927955785962 1.605294286843069 0  0.5590720442151041 0.3947057131574874 0  0.3806892610882634 1.45779712468988 0  2.068924609720675 1.022660837372786 0  2.341074041235895 1.188832775316187 0  2.18592330143686 0.8350645917671413 0  3.442144072694577 0.5537364374543685 0  0.5580179055092813 1.44769836304682 0  2.458072732952079 1.001236529710542 0  2.265691533063607 0.9997919868515381 0  0.8598622775600397 0.8022292942516638 0  0.8157980211770282 0.9004160989907908 0  0.9532865610925081 0.9058353736174807 0  0.6783094812615482 0.8949968243641009 0  0.7717337647940166 0.9986029037299178 0  0.5848851977290799 0.791390744998284 0  0.5408209413460683 0.889577549737411 0  0.727669508411005 1.096789708469045 0  0.8651580483264849 1.102208983095735 0  3.140190469362035 1.194818505424251 0  3.186331600063223 1.097671150656105 0  3.04885897430441 1.091361174223712 0  3.323804225822036 1.103981127088497 0  3.23247273076441 1.000523795887958 0  3.415135720879662 1.207438458289035 0  3.461276851580849 1.110291103520889 0  3.278613861465598 0.9033764411198115 0  3.141141235706785 0.8970664646874194 0  0.9360427842675632 0.7115829322910983 0  0.7985542443520831 0.7061636576644084 0  0.7372462111441265 0.6100980210771529 0  0.6610657044366032 0.7007443830377185 0  0.8134267178516498 0.5194516591165874 0  0.6759381779361698 0.5140323844898975 0  0.5235771645211232 0.6953251084110286 0  3.064008711541834 1.28553489111173 0  3.201481337300647 1.291844867544123 0  3.262772205239258 1.388871229663994 0  3.33895396305946 1.298154843976515 0  3.186590447419056 1.479587615351473 0  3.324063073177869 1.485897591783865 0  3.476426588818273 1.304464820408907 0  1.374999999999945 1.500000000000813 0  1.377147403695425 1.396188061550702 0  1.252147403692399 1.463175359658932 0  1.50214740369845 1.329200763442472 0  1.379294807390904 1.292376123100591 0  1.625000000005997 1.366025403784353 0  1.627147403701476 1.262213465334241 0  1.381442211086383 1.188564184650479 0  1.256442211083358 1.25555148275871 0  1.625000000002612 1.46479103958043 0  1.750000000005637 1.3978037414722 0  1.499999999999586 1.53177833768866 0  1.62499
[...]
<PointData  Scalars="U"> 
<DataArray  type="Float64"  Name="U"  format="ascii">5.7948635388516286e-04  5.1238734561523749e-04  -7.8020826614236347e-03  -5.6777981517610902e-03  8.6930777607375775e-02  1.6173818558665953e-01  2.2475763256606915e-01  2.7686295751930096e-01  3.1780493313713831e-01  3.4614881902973477e-01  3.6382146456407544e-01  3.6947975597382310e-01  3.6367571274836374e-01  3.4624750607727339e-01  3.1706919555386648e-01  2.7637917945499318e-01  2.2452115260653108e-01  1.6130604099388524e-01  8.6741757509827419e-02  1.7873508154591505e-01  3.4547795823456989e-01  5.0087772358593641e-01  6.4519666938285036e-01  7.7739261946692606e-01  8.9833014450457116e-01  1.0080954853302053e+00  1.1060786060554872e+00  1.1924201374373498e+00  1.2673053251439075e+00  1.3307720979732247e+00  1.3824419738963829e+00  1.4220873850005937e+00  1.4505619457417958e+00  1.4677503873255322e+00  1.4742619990067229e+00  1.4687704493778362e+00  1.4515569545610980e+00  1.4227691735432435e+00  1.3824014224077796e+00  1.3307201181077717e+00  1.2673614412745309e+00  1.1926645399978022e+00  1.1061405331989338e+00  1.0081799479268816e+00  8.9897883533528355e-01  7.7837377232539218e-01  6.4544618746355931e-01  5.0185963577573678e-01  3.4847259417510129e-01  1.7913235537029631e-01  1.9728066969881025e-01  2.6244699480226147e-01  3.1965735115615362e-01  3.6359927055244368e-01  4.0242850576116118e-01  4.2251016449376516e-01  4.3939545613071318e-01  4.4859189727369220e-01  4.4499598279804309e-01  4.2626168373098094e-01  3.9620392625170331e-01  3.6273910094587614e-01  3.0433606095065291e-01  2.4126916655871453e-01  1.7384632112450055e-01  1.7921849504404255e-01  3.4744566992028997e-01  5.0125768079307143e-01  6.4510786183332969e-01  7.7738954851003006e-01  8.9806972553055386e-01  1.0078510491765327e+00  1.1061894397825858e+00  1.1925913022447727e+00  1.2673530292131017e+00  1.3307348023493659e+00  1.3828083517488929e+00  1.4230085996530599e+00  1.4515320447531388e+00  1.4687602691582948e+00  1.4747343133636279e+00  1.4692420184365025e+00  1.4520408582417563e+00  1.4233878281955448e+00  1.3829623902605919e+00  1.3308535881813572e+00  1.2674715899575670e+00  1.1928664300533216e+00  1.1062848215826306e+00  1.0083737852228674e+00  8.9906325488130412e-01  7.7834683110796277e-01  6.4544312116147895e-01  5.0109678341088015e-01  3.4585339717851049e-01  1.7887117360128330e-01  1.5209333015897581e+00  1.7018349489551241e+00  1.5158244975508477e+00  1.7185411200360570e+00  1.1463217142581268e+00  1.1472171937716642e+00  8.6913542951064371e-01  8.6646827000409676e-01  1.5170789008342778e+00  1.7458921572425996e+00  1.8363082400029018e+00  1.7814318093629904e+00  1.4599640471696596e+00  1.5175455587367357e+00  1.4617144439251808e+00  1.7288076885628061e+00  1.7012478069711336e+00  1.1015647046053210e+00  9.3865280252315253e-01  1.1012519077390683e+00  9.3678472471487462e-01  1.6191452139769291e+00  1.6382588741587722e+00  1.6348105130212147e+00  7.1478983848023614e-01  7.0115079012307746e-01  7.1138421161137133e-01  6.9582303085386854e-01  1.3110153396745443e+00  1.3182719968180403e+00  1.7784630312775662e+00  1.8328183900209196e+00  1.2270492997566893e+00  1.1557460907515718e+00  1.4060511339916624e+00  1.2280071769276935e+00  1.1508632962147891e+00  1.4007984261887862e+00  1.3209427763466288e+00  1.0599773166094690e+00  1.3218445605853542e+00  1.0616379988365390e+00  1.6759943622513280e+00  1.7319261014422787e+00  1.5905644241657830e+00  1.6018385800024564e+00  1.7190745122980735e+00  1.7563411447620583e+00  1.6911502787981081e+00  9.2508914072522741e-01  1.1026018467513934e+00  9.2544073679473271e-01  1.1081554791367041e+00  5.7963727087848593e-01  6.3005102162156756e-01  1.3556842176277042e+00  1.5062777170793724e+00  1.6326992576409263e+00  1.6525412307866023e+00  1.7408849329953031e+00  1.5078169480772881e+00  1.6116280204396474e+00  1.6364492750322135e+00  1.5663302377119572e+00  1.6133022337243677e+00  1.6447938023080122e+00  1.7562080196806111e+00  5.8868865376012536e-01  6.3993191362719437e-01  1.4725934862615813e+00  1.3554718757831159e+00  1.1496656400429990e+00  1.3352755425561418e+00  1.6065222264706056e+00  1.5659360386672503e+00  9.1703325612706810e-01  1.1477581371426662e+00  1.3359916855643712e+00  1.5753649562342782e+00  1.4728450484670319e+00  1.6233972442858775e+00  1.6124904514728144e+00  9.1527161591002482e-01  1.8109725966461034e+00  1.7895487030092010e+00  1.4781526385412163e+00  1.6360659081931666e+00  1.7237944788941497e+00  1.7896084448475900e+00  1.8297055569555223e+00  1.4718759188388115e+00  1.3308014737932929e+00  1.3389354173443273e+00  1.7932923760638284e+00  1.3375624244219200e+00  1.4429068485513190e+00  1.2217073881623917e+00  1.3342422470190547e+00  1.4471873036192922e+00  1.2247250681661328e+00  1.5891086263106544e+00  1.4791562052061717e+00  1.4931168314369525e+00  1.8020944310099813e+00  1.7894089217161766e+00  6.7119327759989444e-01  6.2175715203587789e-01  1.1214751828967529e+00  8.9025298534433595e-01  6.7839470721535866e-01  6.2654979511613729e-01  1.1208450135538242e+00  8.9009566259517348e-01  1.5607899920556063e+00  1.7025485948611645e+00  1.5192728172775569e+00  6.9214177323893877e-01  3.6743231264703774e-01  4.8357433747321993e-01  3.6514659027924284e-01  3.7910340319881236e-01  6.8504269258020190e-01  4.9656908846415543e-01  6.8732579915655900e-01  6.9247772457697465e-01  3.7867079998390302e-01  5.0694586057799607e-01  4.9516195336749930e-01  1.7546401563798497e+00  1.6711574719641802e+00  1.7125342289499641e+00  8.3622659715392211e-01  8.3141402168290879e-01  9.1806848601508217e-01  9.1835200980148346e-01  1.5527256652763370e+00  1.6913012164990799e+00  1.5630525558307085e+00  8.0043235176007155e-01  9.3991354525350057e-01  9.3870011227191863e-01  7.9929484154247066e-01  1.8382755406993538e+00  1.8051844720471171e+00  1.8193992870169786e+00  1.0019731689052025e+00  1.0017492095504710e+00  1.7631360378984626e+00  1.8214854038517982e+00  1.3505601373265299e+00  1.3228980879046071e+00  1.4363397417593013e+00  1.1949164198634148e+00  1.2870568830231517e+00  1.0903164005487387e+00  1.0543997880780305e+00  1.2428316051078725e+00  1.3633187674459666e+00  1.3512684005851328e+00  1.3221454249798001e+00  1.4335598253266830e+00  1.1932442827394343e+00  1.2839436713941348e+00  1.0895935431007020e+00  1.0516500822450128e+00  1.2368770216413674e+00  1.3578441256918869e+00  1.3963617816572043e+00  1.2794219845439891e+00  1.2007041708164987e+00  1.1517119620688903e+00  1.2409039170855987e+00  1.1083848321131562e+00  1.0026920793471255e+00  1.3968426044190996e+00  1.2800100566349872e+00  1.2010274683743045e+00  1.1504225466191980e+00  1.2413996885189844e+00  1.1086327217435337e+00  1.0049450478034319e+00  1.6087317072544698e+00  1.6422524172161215e+00  1.5605190293007187e+00  1.7177035006764574e+00  1.6706669027833474e+00  1.7270150361683076e+00  1.7769968865449841e+00  1.6909004764128721e+00  1.6151977522705341e+00  1.7267550403484708e+00  1.7763982446423461e+00  1.6532343072176523e+00  1.6651373497812081e+00  1.5657688639690428e+00  1.6367744492614327e+00  1.6967464064369282e+00  1.7589873690004814e+00  1.7533188521891885e+00  1.7065343419331735e+00  1.7749788672496984e+00  1.7161344807977499e+00  1.7578184475560308e+00  1.6774705727759662e+00  9.3765613764961031e-01  1.0416301431511479e+00  1.0216219496814465e+00  1.1336175605804566e+00  9.0142179210159290e-01  9.8872174940462743e-01  1.2120002241394121e+00  9.3736687640386152e-01  1.0429423129668931e+00  1.0219373106287823e+00  1.1389842120345257e+00  9.0078865436690936e-01  9.9177581085136934e-01  1.2162003271575093e+00  4.6040444987792600e-01  4.7372931657959455e-01  4.3944830325329820e-01  6.1214581367234855e-01  3.9904813415102031e-01  7.3395694881907281e-01  7.5883034670029559e-01  1.4403584467645545e+00  1.4364200627103969e+00  1.5185401481204042e+00  1.3438928067742253e+00  1.4198301089775216e+00  1.2555852340416938e+00  1.4883966748853239e+00  1.6732659446613687e+00  1.6960246333102424e+00  1.7277858172080158e+00  1.6472226817484659e+00  1.7029484144168356e+00  1.5821267333724887e+00  1.5893505490541120e+00  1.7014892782431743e+00  1.7500038399806974e+00  1.5185534094562789e+00  1.5761535200447949e+00  1.5858512847186441e+00  1.5660333185643958e+00  1.6344734245136203e+00  1.4902716416954902e+00  1.5407451827991554e+00  1.6758747937456731e+00  1.6857241181493137e+00  1.5390970708498859e+00  1.5460807731220387e+00  1.5137340327647089e+00  1.5944575974523603e+00  1.4797659624237094e+00  1.6413891975591512e+00  1.6619017713265976e+00  1.6844739205457795e+00  1.6914119326662920e+00  1.7425717646449663e+00  1.6520923808615913e+00  1.6914767650252081e+00  1.5856080385636302e+00  1.7487390987470290e+00  4.9297976151716594e-01  5.0976707942831090e-01  4.7252771425913426e-01  6.2250918809782096e-01  4.3607476475329182e-01  7.3206461423559288e-01  7.5408455996994217e-01  1.6039235054483185e+00  1.5260240583201743e+00  1.5598061905493041e+00  1.4327427794458694e+00  1.5008552817716125e+00  1.4416246772064250e+00  1.4367602765436154e+00  1.3450184723462473e+00  1.4201132589321523e+00  1.2541726490633944e+00  1.1333946392045358e+00  1.2482385172603199e+00  1.2252291132953486e+00  1.2578812773486880e+00  1.3504616565373526e+00  1.1554458019226634e+00  1.4329589330789398e+00  1.5147718666125354e+00  1.4782239561997002e+00  1.5362211933953822e+00  1.5931784336961339e+00  1.5495394902017403e+00  1.6624382323834559e+00  1.6398558065824909e+00  1.0276434342704519e+00  1.1347925453636931e+00  9.1616183336634638e-01  1.0412169179713866e+00  7.8258007264970697e-01  1.0354004239358090e+00  1.1551133718896784e+00  1.2463056522915277e+00  1.2264439683705748e+00  1.2591774446893358e+00  1.3518065230478924e+00  1.4321267857450244e+00  1.6512974264640723e+00  1.6162944488670998e+00  1.5297437309761470e+00  1.5687828133294786e+00  1.4864461506368647e+00  1.4346904025056220e+00  1.5023695282217457e+00  1.3769677833504996e+00  1.3066046327293208e+00  1.4095721144015223e+00  1.6449841727027390e+00  1.6897822531952136e+00  1.5841623310419064e+00  1.5725010798343304e+00  1.5487249620529095e+00  1.5441394110568016e+00  1.5489649374136942e+00  1.5176922006311404e+00  1.6016159467108215e+00  1.6715943167787295e+00  1.0288178251828204e+00  9.1764853511254652e-01  1.0402936856132705e+00  7.8189240661309756e-01  1.0373809360147184e+00  1.7751296905452032e+00  1.7522594033871217e+00  1.7844735163929910e+00  1.8064965798570738e+00  1.7826920173466279e+00  1.8315686891165870e+00  1.8218448033263319e+00  1.5096223045095400e+00  1.5643425830788484e+00  1.5888182602203873e+00  1.5288686873152406e+00  1.6107731311127533e+00  1.4371765246845467e+00  1.6743307077171914e+00  1.6172602227485151e+00  1.6724311099740590e+00  1.6726765081105883e+00  1.7201460413860217e+00  1.7191711715994673e+00  1.3761862020762747e+00  1.3067019760876686e+00  1.4120166955755180e+00  1.8318326274236190e+00  1.8360227916199572e+00  1.8068806449037793e+00  1.8207678547969985e+00  1.7687055065614865e+00  1.7974541710256873e+00  1.8030941668505329e+00  1.3085249565748869e+00  1.2278869438067150e+00  1.3779317486713691e+00  1.4096373950904297e+00  1.4329866421141852e+00  1.5029402362963666e+00  1.4358472864447502e+00  1.3109156799476842e+00  1.2289518373536585e+00  1.3795659683014267e+00  1.4126885914010960e+00  1.4402585745273546e+00  1.7635191533428416e+00  1.7983304889872953e+00  1.7615743155797872e+00  1.8175405519584960e+00  1.7517713551518350e+00  1.2229846139269320e+00  1.2904728203979043e+00  1.1684200365280821e+00  1.3979635940766379e+00  1.3397060661033395e+00  1.4380961245173283e+00  1.4912988544543548e+00  1.3813201524603442e+00  1.2690225725051003e+00  1.2210338224821302e+00  1.2931184202803465e+00  1.1684547310328792e+00  1.3952489203002167e+00  1.3384241190718567e+00  1.4297101744228129e+00  1.4912041521004442e+00  1.3895467272387996e+00  1.2753169779449889e+00  1.5639764307775399e+00  1.5227318754505523e+00  1.5412184011886456e+00  1.4735869532893153e+00  1.6122503411449918e+00  1.5600622532054584e+00  1.4028487410087023e+00  1.5215612446778459e+00  1.5519841572742090e+00  1.4722136149320493e+00  1.5661014182392952e+00  1.4095025709350986e+00  1.8327674889857934e+00  1.8373672621039203e+00  1.7764464428620161e+00  1.8060651864738233e+00  1.7379455004497888e+00  1.7850538746949887e+00  1.8368925542525956e+00  4.5957738867618442e-01  4.1204488180687165e-01  4.7935392641838992e-01  6.5747839029869526e-01  4.8999839257693689e-01  8.1767192875976891e-01  7.9275945370565781e-01  9.0251604172709121e-01  7.7177093247962902e-01  1.0189655829568809e+00  1.0116464347039220e+00  1.1211850680661677e+00  1.1232885248008457e+00  1.0032041166514496e+00  4.9963336296690014e-01  4.5220056339535969e-01  5.1518662794850001e-01  6.6195189043238944e-01  5.2670458357778716e-01  8.1530509166689979e-01  7.8656415727171036e-01  9.0124874362880292e-01  7.7352172157510257e-01  1.0188259396575596e+00  1.0107848522896035e+00  1.1208397015295377e+00  1.1227284539408047e+00  1.0029294302550757e+00  6.5552026933909568e-01  7.9087025116219667e-01  8.0908196217762263e-01  1.2387055497308006e+00  1.3436739273244402e+00  1.2415477664498120e+00  6.6060626175048609e-01  7.8927378942398607e-01  8.0359753907215703e-01  1.2354217807115673e+00  1.3436655083047404e+00  1.2380556619514673e+00  1.5999772545483815e+00  1.5347325735144206e+00  1.6705247099529035e+00  1.6466478118224097e+00  1.6203921472600860e+00  1.7632135511768632e+00  1.7551395678158714e+00  1.7232150268999782e+00  1.7230543620619057e+00  1.6691458419838012e+00  1.5475083773888278e+00  1.5073608487020829e+00  1.5725316864163044e+00  1.4631672086487661e+00  1.5945805286446872e+00  3.5917293424383095e-01  1.7284959136657485e-01  5.2841172652506252e-01  5.4184516615025258e-01  6.7241232366915804e-01  7.0809042601926264e-01  5.5520339473169189e-01  2.3638990122903739e-01  1.6922830230263208e-01  3.0185091813264797e-01  4.3546268363752411e-01  3.6602322403111487e-01  6.2528038021947396e-01  5.5311368403379024e-01  5.2586037508810501e-01  6.7655340020305721e-01  3.6722163454372003e-01  5.4160675654764523e-01  1.9452124628507189e-01  5.5146801249738375e-01  7.1439085236293265e-01  2.7443645715707271e-01  3.3915092287040666e-01  4.5079143411958011e-01  4.0265744849608237e-01  6.2528719835214364e-01  5.2796471765922715e-01  6.7736926456213764e-01  3.5797605247259928e-01  5.4212501630976939e-01  7.1492100802797243e-01  3.6535561958697244e-01  1.9326597091176037e-01  5.2602388298507752e-01  5.4074746110044702e-01  6.6990565809337954e-01  7.0623766082285011e-01  5.5260037823118024e-01  3.3826634530538924e-01  3.9610479538640836e-01  2.7304147308771987e-01  4.5064477989333190e-01  6.1297179449900940e-01  3.0835435843199777e-01  3.6359707744174491e-01  2.4363736626428215e-01  4.3740677463086841e-01  6.1387430538387699e-01  1.6645466515976386e+00  1.6045772258559323e+00  1.7062195133251028e+00  1.7184091977178391e+00  1.7341302408916286e+00  1.7692978698122614e+00  1.7335943700469927e+00  1.6549970383854455e+00  1.6743309698559994e+00  1.6388345911946991e+00  1.7027563865677906e+00  1.7464023710185801e+00  5.7597119445347777e-01  7.5477237310301470e-01  6.7111747984489567e-01  8.9827912155927481e-01  7.9234556602904505e-01  5.8854873596368962e-01  7.5255848379191981e-01  6.6634897529739934e-01  9.0027345777403689e-01  7.9296768563765652e-01  7.9940371323899673e-01  9.1020391967256731e-01  8.0987524793256460e-01  1.0149585492248574e+00  8.1758973834627857e-01  7.9699092205581201e-01  9.0906497348402981e-01  8.0890059498230293e-01  1.0128896431954773e+00  8.1698504574716579e-01  1.6521637300170244e+00  1.7063812147392667e+00  1.5891087526877741e+00  1.6264461165198614e+00  1.5117268473308485e+00  1.5923842926124872e+00  1.6544095411118036e+00  1.6686341063883077e+00  1.5981618942877254e+00  1.6385532562772027e+00  1.5155650190688872e+00  1.6014090764928577e+00  1.5005945682869435e+00  1.5254024010389671e+00  1.5442830399424761e+00  7.0294971364383063e-01  8.3799206896842993e-01  5.4263549606415817e-01  6.6089517746094695e-01  7.5947841973929553e-01  9.3816440010864921e-01  1.0523734930092092e+00  8.1514750923212420e-01  8.1865737677879591e-01  8.3549251221777399e-01  9.3998787220819069e-01  1.0502788272515928e+00  8.1732021806815036e-01  8.1474737019878862e-01  8.3864722026157690e-01  6.9891563003569568e-01  8.3607016392022127e-01  5.5289174105448624e-01  6.5932012810371388e-01  7.5733548009884255e-01  1.8512031263748159e+00  1.8456889677263952e+00  1.8493936903649728e+00  1.8303314303494118e+00  1.8356596874354234e+00  1.7436597384419343e+00  1.7480884941045332e+00  1.8161737417966846e+00  1.7513602469807485e+00  1.7924981958058761e+00  1.7747965812980042e+00  1.8117483282607616e+00  1.7954899711757124e+00  1.8315898630737100e+00  1.8034546081685046e+00  1.0575354762347173e+00  9.6474908286237604e-01  9.0611777822135686e-01  8.6462680704100348e-01  9.3848923965882947e-01  9.5966012007657597e-01  1.0095323018452338e+00  8.9444733017180711e-01  1.0570955560466229e+00  9.6414546144274360e-01  9.0534162458137513e-01  8.6327934485324143e-01  9.3878589938349843e-01  9.6191862648405690e-01  1.0131546196777930e+00  8.8950653563073512e-01  1.7532231876802937e+00  1.7827622916279624e+00  1.7965467985057955e+00  1.8011630608016123e+00  1.7780148119126586e+00  1.7987879376530298e+00  1.8314222702204732e+00  1.8222672677755019e+00  1.8387313368121310e+00  1.8302823513316335e+00  1.0602790539911704e+00  1.1175593569557010e+00  1.1686454933812271e+00  1.0607511165740604e+00  1.1207286742913423e+00  1.1719404757671323e+00  1.5334454204774346e+00  1.4874836180740436e+00  1.4528599977885615e+00  1.5215086673178815e+00  1.4848647375347268e+00  1.4471163609493247e+00  1.7293745833282546e+00  1.7034283353179505e+00  1.7447029115968185e+00  </DataArray> 
</PointData> 
</Piece>
</UnstructuredGrid>
</VTKFile>