<?xml version="1.0"?>
<VTKFile type="UnstructuredGrid"  version="0.1"  >
<UnstructuredGrid>
<Piece  NumberOfPoints="737" NumberOfCells="1376">
<Points>
<DataArray  type="Float64"  NumberOfComponents="3"  format="ascii">0 0 0  0 2 0  4 2 0  4 0 0  0 0.1249999999997431 0  0 0.2499999999995515 0  0 0.3749999999991878 0  0 0.4999999999988241 0  0 0.6249999999984651 0  0 0.7499999999981061 0  0 0.874999999997747 0  0 0.999999999997388 0  0 1.124999999997712 0  0 1.249999999998036 0  0 1.374999999998359 0  0 1.499999999998683 0  0 1.624999999999012 0  0 1.749999999999342 0  0 1.874999999999671 0  0.1249999999997626 2 0  0.2499999999994824 2 0  0.3749999999992888 2 0  0.4999999999990952 2 0  0.6249999999987335 2 0  0.7499999999983717 2 0  0.87499999999801 2 0  0.9999999999976482 2 0  1.124999999997284 2 0  1.249999999996919 2 0  1.374999999996555 2 0  1.49999999999619 2 0  1.624999999995837 2 0  1.749999999995483 2 0  1.87499999999513 2 0  1.999999999994776 2 0  2.124999999995095 2 0  2.249999999995413 2 0  2.374999999995731 2 0  2.49999999999605 2 0  2.624999999996379 2 0  2.749999999996708 2 0  2.874999999997037 2 0  2.999999999997367 2 0  3.124999999997696 2 0  3.249999999998025 2 0  3.374999999998354 2 0  3.499999999998683 2 0  3.624999999999012 2 0  3.749999999999341 2 0  3.87499999999967 2 0  4 1.875000000000123 0  4 1.750000000000209 0  4 1.625000000000461 0  4 1.500000000000693 0  4 1.375000000001536 0  4 1.250000000002256 0  4 1.125000000003229 0  4 1.000000000004118 0  4 0.8750000000036089 0  4 0.7500000000030995 0  4 0.6250000000025902 0  4 0.5000000000020808 0  4 0.3750000000015605 0  4 0.2500000000010403 0  4 0.12500000000052 0  3.874999999999586 0 0  3.749999999999274 0 0  3.624999999998618 0 0  3.499999999998004 0 0  3.374999999998717 0 0  3.249999999999506 0 0  3.125000000000414 0 0  3.000000000001386 0 0  2.875000000002339 0 0  2.750000000003406 0 0  2.625000000004116 0 0  2.500000000004855 0 0  2.375000000005834 0 0  2.250000000006474 0 0  2.125000000007378 0 0  2.000000000008237 0 0  1.875000000007738 0 0  1.750000000007239 0 0  1.625000000006741 0 0  1.500000000006242 0 0  1.375000000005722 0 0  1.250000000005202 0 0  1.125000000004682 0 0  1.000000000004162 0 0  0.8750000000036411 0 0  0.7500000000031211 0 0  0.625000000002601 0 0  0.500000000002081 0 0  0.3750000000015605 0 0  0.2500000000010405 0 0  0.12500000000052 0 0  2.751943738452744 0.4502303079023504 0  1.750000000006644 0.4330127018922776 0  1.24999999999692 1.566987298109043 0  2.198013603145998 1.55809283687899 0  3.247881315357668 1.576613977471344 0  0.7521186846436931 0.4233860225293321 0  3.604646881608647 0.7183803468350101 0  0.3953531183914658 1.281619653165416 0  1.25035311411272 0.4314082553323813 0  1.500058852358896 0.8445724375661612 0  1.989156378093928 0.8579334422883895 0  1.750000000009022 1.299038105676122 0  0.9973508174755198 0.8076485688783537 0  2.749999999997339 1.566987298107004 0  3.002717843603222 1.188508528991859 0  2.533455241124366 1.190277318175192 0  2.22583414908933 0.4214378737978327 0  3.279641263780507 0.389092528073727 0  3.552608346638475 1.213748434721428 0  0.7206826926270968 1.613777072928224 0  0.4473966578135999 0.7859714703715941 0  2.767860793511576 0.8832772111385303 0  1.749999999995483 1.694100648860432 0  1.258589614778837 1.151739544308598 0  3.633974596214294 0.3660254037857282 0  3.633974596214256 1.633974596214794 0  0.366025403785061 1.633974596214344 0  0.3660254037865152 0.3660254037856426 0  3.187282366407972 0.799919109919273 0  0.8210937919434733 1.200395787834862 0  2.382690224779792 0.8121957412458931 0  2.148692841347422 1.187388232457183 0  0.7223737376445598 0.7968100196249739 0  0.6342452248785366 0.993183629103228 0  0.9092223047094965 1.004022178356608 0  3.277663095120849 1.201128481856643 0  3.369945356523223 1.00683377232035 0  3.095000105005597 0.9942138194555659 0  0.8747347510596064 0.6155172957038428 0  0.5997576712286465 0.604678746450463 0  3.125299579480445 1.382561253231602 0  3.400244830998071 1.395181206096386 0  1.500000000002971 1.433012701892583 0  1.50429480739393 1.22538882499236 0  1.254294807387878 1.359363421208821 0  1.499999999996201 1.630543973484738 0  1.750000000002252 1.496569377268277 0  1.97400680157751 1.428565471277556 0  1.97400680157074 1.626096742869711 0  3.578627614123561 0.9660643907782188 0  3.395964624008309 0.7591497283771416 0  0.4213748881025329 1.033795561768505 0  0.6082234551674696 1.241007720500139 0  3.802323440804323 0.6091901734185454 0  3.802323440804323 0.8591901734195642 0  1.001235899378206 0.4273971389308567 0  1.12385196579412 0.6195284121053675 0  1.500176557059682 0.4322104786123294 0  1.375205983235808 0.6379903464492712 0  1.62502942618277 0.6387925697292194 0  2.876358921800281 1.377747913549431 0  2.768086542363794 1.189392923583525 0  2.641727620560853 1.378632308141098 0  1.625000000006443 0.2165063509461388 0  1.87500000000744 0.2165063509461388 0  2.474006801571669 1.562540067492997 0  2.365734422135182 1.374185077527091 0  0.1976765591957329 1.39080982658205 0  0.1976765591957329 1.140809826581402 0  1.375176557059481 0.2157041276661906 0  2.998940657677504 1.571800637789174 0  0.8760593423239273 0.2116930112646661 0  1.125176557058441 0.2157041276661906 0  2.112917074548784 0.2107189368989164 0  2.362917074547092 0.2107189368989164 0  3.373940657678175 1.788306988735672 0  3.123940657677517 1.788306988735672 0  2.874999999997353 1.783493649053502 0  2.349006801571024 1.779046418439495 0  2.624999999996695 1.783493649053502 0  1.248704834917208 0.8261105032222574 0  2.099006801570387 1.779046418439495 0  0.6260593423228871 0.2116930112646661 0  1.744607615226412 0.8512529399272754 0  1.869578189050286 0.6454730720903336 0  2.625971869228799 0.2251151539511752 0  2.488888943771037 0.4358340908500916 0  1.987917074547987 0.4272252878450552 0  1.625029426183959 1.071805271621142 0  1.869578189051475 1.078485773982256 0  1.374999999996555 1.783493649054522 0  1.124999999997284 1.783493649054522 0  2.875971869227065 0.2251151539511752 0  2.107495263591629 0.6396856580431112 0  3.015792501116626 0.4196614179880387 0  2.969613052430358 0.6250747089108117 0  3.233461815094239 0.5945058189965 0  0.9853413463120082 1.590382185518634 0  1.035546895970196 1.383691542971953 0  0.7708882422852851 1.407086430381543 0  2.75990226598216 0.6667537595204404 0  2.977571579959774 0.8415981605289016 0  1.039841703361155 1.17606766607173 0  2.17335322224671 1.372740534668087 0  1.949346420678222 1.243213169066653 0  3.776304173319237 1.106874217362773 0  3.776304173319237 1.35687421736106 0  3.139820631890947 0.1945462640368635 0  3.389820631889256 0.1945462640368635 0  0.2236983289068 0.892985735184491 0  0.2236983289068 0.6429857351852091 0  0.8603413463123726 1.806888536464112 0  0.610341346313096 1.806888536464112 0  1.874999999995129 1.847050324430216 0  1.379324233568866 0.9981559909373798 0  1.624999999995837 1.847050324430216 0  3.566987298106149 0.1830127018928641 0  3.816987298107147 0.1830127018928641 0  3.816987298107128 1.566987298107743 0  3.816987298107128 1.816987298107397 0  0.1830127018932576 0.1830127018928213 0  0.4330127018942981 0.1830127018928213 0  0.1830127018932576 0.4330127018922334 0  3.566987298106469 1.816987298107397 0  0.4330127018920781 1.816987298107172 0  0.1830127018925305 1.816987298107172 0  0.1830127018925305 1.566987298106514 0  3.816987298107147 0.4330127018939045 0  2.304262186934561 0.616816807521863 0  2.567316981616268 0.6312130245741218 0  2.575275509145684 0.8477364761922117 0  3.593291471426365 1.42386151546811 0  0.4067110308000575 0.5759984370786184 0  3.4568079299974 0.3775589659297276 0  0.5433540482060789 1.623875834571284 0  2.885289318557399 1.035892870065195 0  2.650658017317971 1.036777264656861 0  1.127970216127178 0.9796940565934761 0  3.61931073891147 0.5422028753103691 0  3.440927955785962 1.605294286843069 0  0.5590720442151041 0.3947057131574874 0  0.3806892610882634 1.45779712468988 0  2.068924609720675 1.022660837372786 0  2.341074041235895 1.188832775316187 0  2.18592330143686 0.8350645917671413 0  3.442144072694577 0.5537364374543685 0  0.5580179055092813 1.44769836304682 0  2.458072732952079 1.001236529710542 0  2.265691533063607 0.9997919868515381 0  0.8598622775600397 0.8022292942516638 0  0.8157980211770282 0.9004160989907908 0  0.9532865610925081 0.9058353736174807 0  0.6783094812615482 0.8949968243641009 0  0.7717337647940166 0.9986029037299178 0  0.5848851977290799 0.791390744998284 0  0.5408209413460683 0.889577549737411 0  0.727669508411005 1.096789708469045 0  0.8651580483264849 1.102208983095735 0  3.140190469362035 1.194818505424251 0  3.186331600063223 1.097671150656105 0  3.04885897430441 1.091361174223712 0  3.323804225822036 1.103981127088497 0  3.23247273076441 1.000523795887958 0  3.415135720879662 1.207438458289035 0  3.461276851580849 1.110291103520889 0  3.278613861465598 0.9033764411198115 0  3.141141235706785 0.8970664646874194 0  0.9360427842675632 0.7115829322910983 0  0.7985542443520831 0.7061636576644084 0  0.7372462111441265 0.6100980210771529 0  0.6610657044366032 0.7007443830377185 0  0.8134267178516498 0.5194516591165874 0  0.6759381779361698 0.5140323844898975 0  0.5235771645211232 0.6953251084110286 0  3.064008711541834 1.28553489111173 0  3.201481337300647 1.291844867544123 0  3.262772205239258 1.388871229663994 0  3.33895396305946 1.298154843976515 0  3.186590447419056 1.479587615351473 0  3.324063073177869 1.485897591783865 0  3.476426588818273 1.304464820408907 0  1.374999999999945 1.500000000000813 0  1.377147403695425 1.396188061550702 0  1.252147403692399 1.463175359658932 0  1.50214740369845 1.329200763442472 0  1.379294807390904 1.292376123100591 0  1.625000000005997 1.366025403784353 0  1.627147403701476 1.262213465334241 0  1.381442211086383 1.188564184650479 0  1.256442211083358 1.25555148275871 0  1.625000000002612 1.46479103958043 0  1.750000000005637 1.3978037414722 0  1.499999999999586 1.53177833768866 0  1.62499
[...]
<PointData  Scalars="ud"> 
<DataArray  type="Float64"  Name="ud"  format="ascii">0.0000000000000000e+00  0.0000000000000000e+00  0.0000000000000000e+00  0.0000000000000000e+00  2.0338577853895518e-01  3.7965345327286076e-01  5.2880302420141689e-01  6.5083449132488458e-01  7.4574785464326709e-01  8.1354311415655955e-01  8.5422026986476141e-01  8.6777932176787331e-01  8.5422026986574662e-01  8.1354311415823344e-01  7.4574785464533411e-01  6.5083449132704785e-01  5.2880302420336966e-01  3.7965345327430094e-01  2.0338577853984505e-01  4.2033060898054114e-01  8.1354311415580916e-01  1.1796375155261971e+00  1.5186138130914226e+00  1.8304720068510854e+00  2.1152120968056587e+00  2.3728340829551433e+00  2.6033379652995383e+00  2.8067237438388406e+00  2.9829914185730542e+00  3.1321409895021812e+00  3.2541724566262187e+00  3.3490858199451767e+00  3.4168810794590416e+00  3.4575582351678134e+00  3.4711172870714933e+00  3.4575582351699343e+00  3.4168810794629914e+00  3.3490858199506648e+00  3.2541724566329528e+00  3.1321409895098453e+00  2.9829914185813493e+00  2.8067237438474648e+00  2.6033379653081896e+00  2.3728340829635268e+00  2.1152120968134756e+00  1.8304720068580351e+00  1.5186138130972073e+00  1.1796375155309895e+00  8.1354311415938285e-01  4.2033060898238739e-01  2.0338577853915851e-01  3.7965345327317263e-01  5.2880302420179781e-01  6.5083449132530358e-01  7.4574785464326643e-01  8.1354311415640235e-01  8.5422026986454980e-01  8.6777932176787331e-01  8.5422026986603317e-01  8.1354311415872604e-01  7.4574785464595184e-01  6.5083449132771065e-01  5.2880302420399050e-01  3.7965345327479866e-01  2.0338577854013498e-01  4.2033060898266050e-01  8.1354311415958647e-01  1.1796375155321004e+00  1.5186138130989750e+00  1.8304720068571696e+00  2.1152120968102626e+00  2.3728340829582204e+00  2.6033379653012143e+00  2.8067237438394135e+00  2.9829914185726309e+00  3.1321409895014534e+00  3.2541724566253118e+00  3.3490858199440892e+00  3.4168810794581921e+00  3.4575582351672693e+00  3.4711172870714933e+00  3.4575582351705494e+00  3.4168810794641420e+00  3.3490858199522733e+00  3.2541724566349415e+00  3.1321409895121244e+00  2.9829914185838358e+00  2.8067237438500752e+00  2.6033379653108435e+00  2.3728340829661381e+00  2.1152120968159620e+00  1.8304720068603149e+00  1.5186138130991957e+00  1.1796375155326038e+00  8.1354311416054148e-01  4.2033060898300578e-01  3.5859539089324515e+00  4.0056913941622740e+00  3.5718017332701457e+00  4.0345863582256865e+00  2.6990614385979885e+00  2.6990614386016123e+00  2.0356356537414872e+00  2.0356356537415938e+00  3.5706801897593339e+00  4.1010392701579077e+00  4.3212802625659554e+00  4.2070602865713331e+00  3.4344063547004060e+00  3.5718017332796252e+00  3.4355569579587013e+00  4.0605303995736381e+00  4.0041635814038878e+00  2.5940616618890231e+00  2.2073866866309353e+00  2.5917313576957279e+00  2.2072961961080275e+00  3.8154222637002198e+00  3.8665854017093699e+00  3.8419070266044342e+00  1.6732548914041161e+00  1.6732548914036500e+00  1.6732548914022081e+00  1.6732548914063172e+00  3.0809014146671290e+00  3.0979909928819032e+00  4.1812017999383118e+00  4.2892388823959697e+00  2.8865680894001176e+00  2.7201995775193351e+00  3.3064022209380477e+00  2.8872097111447204e+00  2.7102509981754577e+00  3.2983782548479890e+00  3.1118142738692245e+00  2.5018446888893613e+00  3.1130261921878382e+00  2.5019346779542140e+00  3.9592431555682266e+00  4.0815794211444025e+00  3.7442783347799469e+00  3.7769351271358511e+00  4.0706823812108794e+00  4.1789266892726058e+00  3.9981432920462887e+00  2.1753346514550658e+00  2.5975012079773614e+00  2.1753497384391345e+00  2.6075669384950193e+00  1.3874905301829490e+00  1.5028226656982433e+00  3.1887386284094910e+00  3.5471399562269532e+00  3.8423459788121463e+00  3.8864203708650802e+00  4.1036644235375395e+00  3.5486113290258392e+00  3.7958172124071665e+00  3.8571256933233431e+00  3.6841681330091545e+00  3.7926405482275589e+00  3.8693119081752547e+00  4.1013193359461440e+00  1.3874905301827205e+00  1.5028226656981825e+00  3.4663233701948779e+00  3.1892292346153117e+00  2.7034185115110154e+00  3.1409827308130116e+00  3.7872363967995737e+00  3.6840066380061693e+00  2.1615160730823075e+00  2.7034185115077358e+00  3.1418060569045485e+00  3.7065292688397919e+00  3.4672233025670658e+00  3.8228438816874362e+00  3.8037235040092483e+00  2.1615160730853029e+00  4.2630952536803930e+00  4.2150652013229273e+00  3.4778102036984948e+00  3.8552870350078328e+00  4.0540767977581451e+00  4.2124100249318435e+00  4.3187902786801420e+00  3.4672233025583576e+00  3.1418060568950170e+00  3.1519712740280714e+00  4.2162085306652743e+00  3.1512301603031792e+00  3.4010714893187775e+00  2.8759477324800509e+00  3.1430244100655012e+00  3.4039607217988368e+00  2.8841209166820367e+00  3.7414266315632965e+00  3.4878330279715914e+00  3.5119864149685749e+00  4.1922533183617237e+00  4.2853386309011254e+00  1.5909183885019307e+00  1.4903105629637299e+00  2.6485086613961020e+00  2.0997160663500116e+00  1.5909001086313685e+00  1.4902315179507764e+00  2.6468215564770521e+00  2.0980992420963362e+00  3.7027108814609591e+00  4.0045917344934345e+00  3.5942384662383224e+00  1.6288934328198497e+00  8.9475763782149631e-01  1.1950037719326561e+00  8.9475763782118656e-01  8.9475763782271200e-01  1.6288934328210043e+00  1.1950037719338489e+00  1.6288934328186089e+00  1.6288934328149764e+00  8.9475763782042850e-01  1.1950037719327884e+00  1.1950037719342168e+00  4.1311460414159704e+00  3.9415817716169617e+00  4.0315933088120168e+00  1.9800673584373936e+00  1.9799712366748157e+00  2.1610115926219851e+00  2.1598693346644211e+00  3.6576677339890526e+00  3.9703434218433076e+00  3.6786482085322230e+00  1.8815664397985654e+00  2.2192115023396730e+00  2.2192115023429233e+00  1.8815664397976177e+00  4.3343285183690350e+00  4.2070034209952025e+00  4.2852928709878801e+00  2.3612876771356142e+00  2.3605800105246280e+00  4.1568086013628038e+00  4.2776383014429475e+00  3.1769164255492370e+00  3.1133741509251744e+00  3.3804551746059497e+00  2.8134347202464491e+00  3.0297301027276662e+00  2.5633613462530476e+00  2.4806368825697738e+00  2.9259842809567114e+00  3.2122474936966978e+00  3.1778178067641876e+00  3.1093207198779602e+00  3.3770048735371123e+00  2.8087676217938569e+00  3.0207490987241994e+00  2.5637326711003037e+00  2.4753455792848027e+00  2.9121029433028984e+00  3.1996771018913264e+00  3.2843804085893686e+00  3.0113576495183061e+00  2.8232586848782684e+00  2.7054764834492935e+00  2.9167079505399727e+00  2.6126195316291221e+00  2.3667369103823295e+00  3.2857208235506419e+00  3.0122956055012158e+00  2.8239149072835015e+00  2.7060014430268406e+00  2.9174730638702875e+00  2.6126757121110402e+00  2.3668383361275129e+00  3.7829754808310572e+00  3.8660346863132169e+00  3.6673960227357103e+00  4.0297672770669788e+00  3.9303819143740459e+00  4.1006047574816522e+00  4.1585937949969978e+00  3.9760171650135478e+00  3.8024486694028559e+00  4.0293981583010758e+00  4.1473362181587383e+00  3.8765540256196713e+00  3.9412617905852376e+00  3.6888038201145230e+00  3.8361956543341345e+00  3.9770987757277561e+00  4.1212823654676711e+00  4.0969998749270786e+00  4.0282541781556764e+00  4.1366938882614326e+00  4.0489386783471071e+00  4.2075193296404949e+00  3.9442536998975184e+00  2.2048165393602135e+00  2.4526009932585247e+00  2.4029446665978189e+00  2.6673319733936225e+00  2.1189410229154899e+00  2.3263765993026868e+00  2.8490094797655066e+00  2.2047939206521621e+00  2.4579630617750525e+00  2.4083473342231696e+00  2.6773542113857585e+00  2.1189636494689452e+00  2.3317896999141245e+00  2.8629673694842799e+00  1.1692467543405705e+00  1.1980797882189473e+00  1.1132956166567265e+00  1.4587156498433298e+00  1.0302263751674154e+00  1.7226269563743053e+00  1.7820079542057554e+00  3.3931763626416673e+00  3.3792093866227759e+00  3.5700592439924144e+00  3.1614256221386290e+00  3.3429440686053438e+00  2.9573669870628070e+00  3.5019223264629509e+00  3.9375587332000457e+00  3.9856453614014575e+00  4.0672526816942680e+00  3.8769579476829752e+00  4.0085824439141451e+00  3.7200531309985760e+00  3.7411904405388219e+00  4.0063699807381088e+00  4.1149266196920848e+00  3.5714395270043999e+00  3.7148118945848405e+00  3.7247036200256618e+00  3.6824541774406803e+00  3.8377044487169232e+00  3.5033171393439395e+00  3.6276304685931837e+00  3.9401171894006515e+00  3.9690679531726687e+00  3.6183198657484876e+00  3.6454379695521952e+00  3.5640836581393174e+00  3.7519633925210880e+00  3.4827293467246854e+00  3.8584888154883505e+00  3.9127250230975852e+00  3.9684785988061200e+00  3.9955555287848776e+00  4.0813930863475365e+00  3.8766590400109187e+00  3.9957519802403940e+00  3.7370862863330894e+00  4.0943651070215115e+00  1.1692467543403080e+00  1.1980797882188901e+00  1.1132956166563390e+00  1.4587156498431448e+00  1.0302263751669847e+00  1.7226269563742576e+00  1.7820079542057505e+00  3.7767313176600856e+00  3.5887857983148517e+00  3.6678937264061489e+00  3.3737221751643456e+00  3.5319760417265398e+00  3.3939648961165947e+00  3.3803495302979503e+00  3.1623607092532455e+00  3.3442681727759656e+00  2.9575947487757768e+00  2.6664329407996261e+00  2.9356675747192678e+00  2.8856537613814073e+00  2.9595719832797340e+00  3.1779153819999486e+00  2.7142946774450110e+00  3.3693248736056529e+00  3.5628428493726547e+00  3.4827992020636320e+00  3.6157683928767708e+00  3.7491805693053109e+00  3.6415758325760041e+00  3.9080989797422010e+00  3.8577947644529207e+00  2.4224849159692838e+00  2.6664329407966245e+00  2.1514187873365538e+00  2.4460263441977159e+00  1.8532345548984348e+00  2.4434583676488266e+00  2.7142946774415244e+00  2.9360616963752681e+00  2.8861310630090293e+00  2.9598829249641851e+00  3.1785723481485921e+00  3.3703629469947467e+00  3.8860952788853567e+00  3.8014796404102182e+00  3.6034057513090780e+00  3.6838050707237788e+00  3.4958883280889896e+00  3.3742569315027042e+00  3.5330715698260402e+00  3.2381508077088386e+00  3.0754613364478582e+00  3.3172121024066801e+00  3.8657812972755292e+00  3.9757218432372423e+00  3.7305604308605873e+00  3.6976320791838102e+00  3.6424053855084910e+00  3.6258397570887371e+00  3.6501383158805343e+00  3.5744230944915554e+00  3.7686854383272119e+00  3.9318728514576313e+00  2.4224849159722135e+00  2.1514187873393298e+00  2.4460263442008952e+00  1.8532345549009739e+00  2.4434583676521826e+00  4.1723486842598492e+00  4.1232731409823051e+00  4.1962746818486689e+00  4.2516550003460232e+00  4.1950511337487653e+00  4.3051716299527900e+00  4.2810675751841449e+00  3.5463188115453761e+00  3.6802582741010563e+00  3.7356775444300583e+00  3.5959654933122476e+00  3.7840835917369038e+00  3.3804280853918067e+00  3.9447823806657758e+00  3.8022258000073323e+00  3.9357576636333236e+00  3.9342156491815281e+00  4.0421714234539756e+00  4.0414075170747825e+00  3.2386664124768689e+00  3.0759577896456429e+00  3.3180737316385009e+00  4.3055328278220726e+00  4.3336902716509229e+00  4.2514076403339924e+00  4.2785840236356076e+00  4.1713147091866816e+00  4.2243252173933943e+00  4.2765802836536118e+00  3.0759577896365804e+00  2.8861310629998211e+00  3.2386664124682500e+00  3.3180737316292306e+00  3.3742569314948323e+00  3.5330715698167943e+00  3.3703629469851255e+00  3.0819181015302379e+00  2.8919859538924535e+00  3.2447321453633875e+00  3.3284497907657182e+00  3.3832939257080703e+00  4.1479426517106255e+00  4.2279241934878682e+00  4.1480375074514138e+00  4.2821160487857028e+00  4.1235577082046699e+00  2.8879515048192097e+00  3.0304999032713602e+00  2.7446212457350301e+00  3.2857673733614718e+00  3.1538152046225236e+00  3.3838976283409257e+00  3.5104236560053619e+00  3.2578974088727004e+00  2.9880411221240815e+00  2.8826923500262560e+00  3.0308387530544731e+00  2.7477410725371874e+00  3.2833075012804747e+00  3.1593552853860785e+00  3.3727275378134642e+00  3.5051473172151955e+00  3.2682419470210742e+00  3.0008708901302752e+00  3.6738749065596141e+00  3.5811668576380167e+00  3.6315407866471912e+00  3.4546368949569244e+00  3.7886090839434980e+00  3.6615454430328849e+00  3.2942850185163395e+00  3.5846288795957442e+00  3.6453984645549657e+00  3.4673295570943719e+00  3.6874560720928566e+00  3.3154980552315907e+00  4.2397178345995901e+00  4.2554967203405978e+00  4.1948872654215341e+00  4.2533218163499482e+00  4.1210050128064299e+00  4.2483312748915711e+00  4.2965860182529161e+00  1.1652606846357028e+00  1.0858725206409177e+00  1.2175307448255575e+00  1.5541735276352671e+00  1.2426827012105315e+00  1.9124863836420634e+00  1.8641486182937339e+00  2.1199162935303950e+00  1.8200095219384962e+00  2.3927049613171758e+00  2.3876714157754972e+00  2.6383755252989061e+00  2.6337373735928078e+00  2.3577334463335213e+00  1.1652279034770223e+00  1.0858245481964106e+00  1.2175131549525440e+00  1.5541248651936175e+00  1.2426803026229754e+00  1.9124387397930527e+00  1.8640554005879824e+00  2.1189773931958524e+00  1.8190881917695696e+00  2.3917484908170459e+00  2.3860194511892390e+00  2.6374014846331497e+00  2.6315981808312445e+00  2.3556469640717226e+00  1.5603263974173001e+00  1.8524125046522855e+00  1.8959053144643885e+00  2.9155455614351973e+00  3.1640529291158703e+00  2.9142007450774514e+00  1.5603323405433565e+00  1.8524267894920132e+00  1.8959037180211136e+00  2.9096282728316756e+00  3.1547369572251136e+00  2.9084820351738210e+00  3.7651065457547932e+00  3.5953789685338582e+00  3.9093982822954003e+00  3.8631450070937872e+00  3.7931130258527959e+00  4.1552743695661896e+00  4.1227748208517685e+00  4.0576756394607250e+00  4.0610951488537372e+00  3.9315290270770005e+00  3.6305440991147360e+00  3.5451662743098629e+00  3.6991458485896298e+00  3.4326703456999019e+00  3.7388768182414776e+00  8.6239014613261145e-01  4.6191136694060625e-01  1.2357508215195998e+00  1.2753845872234042e+00  1.5819933931014865e+00  1.6593139322540600e+00  1.2985388126426645e+00  6.4544531568922903e-01  4.6191136694043528e-01  8.0186116063274460e-01  1.0584397567795065e+00  9.3115890177102523e-01  1.4423691018101987e+00  1.2985388126422599e+00  1.2357508215206612e+00  1.5819933931021619e+00  8.6239014613368847e-01  1.2753845872245937e+00  4.6191136694124435e-01  1.2985388126444029e+00  1.6593139322557229e+00  6.4544531568985242e-01  8.0186116063323187e-01  1.0584397567808397e+00  9.3115890177142857e-01  1.4423691018121449e+00  1.2357508215188340e+00  1.5819933930999530e+00  8.6239014613232823e-01  1.2753845872225908e+00  1.6593139322531729e+00  8.6239014613015741e-01  4.6191136694004536e-01  1.2357508215152289e+00  1.2753845872202765e+00  1.5819933930952401e+00  1.6593139322506323e+00  1.2985388126411492e+00  8.0186116063337576e-01  9.3115890177195859e-01  6.4544531568940511e-01  1.0584397567793031e+00  1.4423691018095381e+00  8.0186116063436597e-01  9.3115890177303806e-01  6.4544531569022190e-01  1.0584397567805925e+00  1.4423691018112412e+00  3.9080502409986155e+00  3.7782688195701017e+00  4.0077175175072970e+00  4.0514209789763829e+00  4.0772706490961470e+00  4.1657897583633590e+00  4.0758927650730321e+00  3.9010109494830516e+00  3.9318281055043065e+00  3.8498245208383168e+00  3.9967721765262296e+00  4.1147178736233521e+00  1.3525938098032149e+00  1.7434287308426029e+00  1.6028355586814276e+00  2.1036636648891891e+00  1.8365977672755447e+00  1.3525415681717234e+00  1.7433411474548581e+00  1.6027790478629125e+00  2.1035576396208326e+00  1.8365369872699775e+00  1.8711430785787853e+00  2.1386035996280737e+00  1.9057970949349190e+00  2.3843749562493564e+00  1.9239715710069050e+00  1.8703403899845195e+00  2.1372240585224191e+00  1.9051130479153893e+00  2.3826443987089378e+00  1.9234061655621777e+00  3.8911248479151346e+00  4.0235286832600670e+00  3.7348342457497030e+00  3.8259489613264286e+00  3.5546568767637745e+00  3.7445895296345353e+00  3.9009746153233587e+00  3.9238406875603871e+00  3.7590256916378961e+00  3.8554002388273987e+00  3.5666501610862649e+00  3.7704004970382803e+00  3.5140246571163138e+00  3.5682608647276322e+00  3.6620337257521873e+00  1.6427682551328311e+00  1.9653813385764647e+00  1.2980274428650234e+00  1.5493489702784766e+00  1.7841909574077819e+00  2.1986035578530352e+00  2.4673998048035428e+00  1.9034680872851715e+00  1.9372220793878161e+00  1.9544965312063751e+00  2.1986035578561745e+00  2.4673998048070072e+00  1.9034680872878931e+00  1.9372220793906887e+00  1.9544965312093598e+00  1.6427682551322096e+00  1.9653813385760350e+00  1.2980274428641836e+00  1.5493489702773031e+00  1.7841909574063421e+00  4.3358566601289557e+00  4.3350716269395138e+00  4.3093316912626518e+00  4.3234885756629540e+00  4.3190509368545200e+00  4.1548160221565338e+00  4.1617465529833968e+00  4.2130686089400839e+00  4.1417966052870199e+00  4.2561508466981861e+00  4.1821902459745592e+00  4.2603665385127956e+00  4.2215911083720137e+00  4.3117995267108533e+00  4.2417602953970324e+00  2.4892844243424084e+00  2.2679299266852393e+00  2.1282653874609423e+00  2.0328987710403648e+00  2.2100714202686409e+00  2.2492643525305160e+00  2.3705097325019682e+00  2.1118170842234685e+00  2.4878798103116697e+00  2.2670049644009538e+00  2.1279172776899862e+00  2.0324420134325116e+00  2.2098319583346027e+00  2.2491712971168281e+00  2.3704520188455529e+00  2.1117578373925046e+00  4.1176551258699279e+00  4.1925105012479547e+00  4.2252531464054748e+00  4.2513064866207824e+00  4.1779908260522634e+00  4.2400245407595811e+00  4.2940430819884101e+00  4.2887328226874324e+00  4.3204151847474099e+00  4.3144963698399286e+00  2.4890109911069813e+00  2.6284258732510954e+00  2.7483342250587959e+00  2.4938884098581293e+00  2.6325388673991501e+00  2.7575680537900196e+00  3.6053681985371231e+00  3.5030345660414861e+00  3.4193171974232626e+00  3.5827876481140901e+00  3.4879407916154981e+00  3.4011501721996873e+00  4.0718963308512421e+00  4.0099539907293682e+00  4.1022927276390044e+00  </DataArray> 
</PointData> 
</Piece>
</UnstructuredGrid>
</VTKFile>