<?xml version="1.0"?>
<VTKFile type="UnstructuredGrid"  version="0.1"  >
<UnstructuredGrid>
<Piece  NumberOfPoints="737" NumberOfCells="1376">
<Points>
<DataArray  type="Float64"  NumberOfComponents="3"  format="ascii">0 0 0  0 2 0  4 2 0  4 0 0  0 0.1249999999997431 0  0 0.2499999999995515 0  0 0.3749999999991878 0  0 0.4999999999988241 0  0 0.6249999999984651 0  0 0.7499999999981061 0  0 0.874999999997747 0  0 0.999999999997388 0  0 1.124999999997712 0  0 1.249999999998036 0  0 1.374999999998359 0  0 1.499999999998683 0  0 1.624999999999012 0  0 1.749999999999342 0  0 1.874999999999671 0  0.1249999999997626 2 0  0.2499999999994824 2 0  0.3749999999992888 2 0  0.4999999999990952 2 0  0.6249999999987335 2 0  0.7499999999983717 2 0  0.87499999999801 2 0  0.9999999999976482 2 0  1.124999999997284 2 0  1.249999999996919 2 0  1.374999999996555 2 0  1.49999999999619 2 0  1.624999999995837 2 0  1.749999999995483 2 0  1.87499999999513 2 0  1.999999999994776 2 0  2.124999999995095 2 0  2.249999999995413 2 0  2.374999999995731 2 0  2.49999999999605 2 0  2.624999999996379 2 0  2.749999999996708 2 0  2.874999999997037 2 0  2.999999999997367 2 0  3.124999999997696 2 0  3.249999999998025 2 0  3.374999999998354 2 0  3.499999999998683 2 0  3.624999999999012 2 0  3.749999999999341 2 0  3.87499999999967 2 0  4 1.875000000000123 0  4 1.750000000000209 0  4 1.625000000000461 0  4 1.500000000000693 0  4 1.375000000001536 0  4 1.250000000002256 0  4 1.125000000003229 0  4 1.000000000004118 0  4 0.8750000000036089 0  4 0.7500000000030995 0  4 0.6250000000025902 0  4 0.5000000000020808 0  4 0.3750000000015605 0  4 0.2500000000010403 0  4 0.12500000000052 0  3.874999999999586 0 0  3.749999999999274 0 0  3.624999999998618 0 0  3.499999999998004 0 0  3.374999999998717 0 0  3.249999999999506 0 0  3.125000000000414 0 0  3.000000000001386 0 0  2.875000000002339 0 0  2.750000000003406 0 0  2.625000000004116 0 0  2.500000000004855 0 0  2.375000000005834 0 0  2.250000000006474 0 0  2.125000000007378 0 0  2.000000000008237 0 0  1.875000000007738 0 0  1.750000000007239 0 0  1.625000000006741 0 0  1.500000000006242 0 0  1.375000000005722 0 0  1.250000000005202 0 0  1.125000000004682 0 0  1.000000000004162 0 0  0.8750000000036411 0 0  0.7500000000031211 0 0  0.625000000002601 0 0  0.500000000002081 0 0  0.3750000000015605 0 0  0.2500000000010405 0 0  0.12500000000052 0 0  2.751943738452744 0.4502303079023504 0  1.750000000006644 0.4330127018922776 0  1.24999999999692 1.566987298109043 0  2.198013603145998 1.55809283687899 0  3.247881315357668 1.576613977471344 0  0.7521186846436931 0.4233860225293321 0  3.604646881608647 0.7183803468350101 0  0.3953531183914658 1.281619653165416 0  1.25035311411272 0.4314082553323813 0  1.500058852358896 0.8445724375661612 0  1.989156378093928 0.8579334422883895 0  1.750000000009022 1.299038105676122 0  0.9973508174755198 0.8076485688783537 0  2.749999999997339 1.566987298107004 0  3.002717843603222 1.188508528991859 0  2.533455241124366 1.190277318175192 0  2.22583414908933 0.4214378737978327 0  3.279641263780507 0.389092528073727 0  3.552608346638475 1.213748434721428 0  0.7206826926270968 1.613777072928224 0  0.4473966578135999 0.7859714703715941 0  2.767860793511576 0.8832772111385303 0  1.749999999995483 1.694100648860432 0  1.258589614778837 1.151739544308598 0  3.633974596214294 0.3660254037857282 0  3.633974596214256 1.633974596214794 0  0.366025403785061 1.633974596214344 0  0.3660254037865152 0.3660254037856426 0  3.187282366407972 0.799919109919273 0  0.8210937919434733 1.200395787834862 0  2.382690224779792 0.8121957412458931 0  2.148692841347422 1.187388232457183 0  0.7223737376445598 0.7968100196249739 0  0.6342452248785366 0.993183629103228 0  0.9092223047094965 1.004022178356608 0  3.277663095120849 1.201128481856643 0  3.369945356523223 1.00683377232035 0  3.095000105005597 0.9942138194555659 0  0.8747347510596064 0.6155172957038428 0  0.5997576712286465 0.604678746450463 0  3.125299579480445 1.382561253231602 0  3.400244830998071 1.395181206096386 0  1.500000000002971 1.433012701892583 0  1.50429480739393 1.22538882499236 0  1.254294807387878 1.359363421208821 0  1.499999999996201 1.630543973484738 0  1.750000000002252 1.496569377268277 0  1.97400680157751 1.428565471277556 0  1.97400680157074 1.626096742869711 0  3.578627614123561 0.9660643907782188 0  3.395964624008309 0.7591497283771416 0  0.4213748881025329 1.033795561768505 0  0.6082234551674696 1.241007720500139 0  3.802323440804323 0.6091901734185454 0  3.802323440804323 0.8591901734195642 0  1.001235899378206 0.4273971389308567 0  1.12385196579412 0.6195284121053675 0  1.500176557059682 0.4322104786123294 0  1.375205983235808 0.6379903464492712 0  1.62502942618277 0.6387925697292194 0  2.876358921800281 1.377747913549431 0  2.768086542363794 1.189392923583525 0  2.641727620560853 1.378632308141098 0  1.625000000006443 0.2165063509461388 0  1.87500000000744 0.2165063509461388 0  2.474006801571669 1.562540067492997 0  2.365734422135182 1.374185077527091 0  0.1976765591957329 1.39080982658205 0  0.1976765591957329 1.140809826581402 0  1.375176557059481 0.2157041276661906 0  2.998940657677504 1.571800637789174 0  0.8760593423239273 0.2116930112646661 0  1.125176557058441 0.2157041276661906 0  2.112917074548784 0.2107189368989164 0  2.362917074547092 0.2107189368989164 0  3.373940657678175 1.788306988735672 0  3.123940657677517 1.788306988735672 0  2.874999999997353 1.783493649053502 0  2.349006801571024 1.779046418439495 0  2.624999999996695 1.783493649053502 0  1.248704834917208 0.8261105032222574 0  2.099006801570387 1.779046418439495 0  0.6260593423228871 0.2116930112646661 0  1.744607615226412 0.8512529399272754 0  1.869578189050286 0.6454730720903336 0  2.625971869228799 0.2251151539511752 0  2.488888943771037 0.4358340908500916 0  1.987917074547987 0.4272252878450552 0  1.625029426183959 1.071805271621142 0  1.869578189051475 1.078485773982256 0  1.374999999996555 1.783493649054522 0  1.124999999997284 1.783493649054522 0  2.875971869227065 0.2251151539511752 0  2.107495263591629 0.6396856580431112 0  3.015792501116626 0.4196614179880387 0  2.969613052430358 0.6250747089108117 0  3.233461815094239 0.5945058189965 0  0.9853413463120082 1.590382185518634 0  1.035546895970196 1.383691542971953 0  0.7708882422852851 1.407086430381543 0  2.75990226598216 0.6667537595204404 0  2.977571579959774 0.8415981605289016 0  1.039841703361155 1.17606766607173 0  2.17335322224671 1.372740534668087 0  1.949346420678222 1.243213169066653 0  3.776304173319237 1.106874217362773 0  3.776304173319237 1.35687421736106 0  3.139820631890947 0.1945462640368635 0  3.389820631889256 0.1945462640368635 0  0.2236983289068 0.892985735184491 0  0.2236983289068 0.6429857351852091 0  0.8603413463123726 1.806888536464112 0  0.610341346313096 1.806888536464112 0  1.874999999995129 1.847050324430216 0  1.379324233568866 0.9981559909373798 0  1.624999999995837 1.847050324430216 0  3.566987298106149 0.1830127018928641 0  3.816987298107147 0.1830127018928641 0  3.816987298107128 1.566987298107743 0  3.816987298107128 1.816987298107397 0  0.1830127018932576 0.1830127018928213 0  0.4330127018942981 0.1830127018928213 0  0.1830127018932576 0.4330127018922334 0  3.566987298106469 1.816987298107397 0  0.4330127018920781 1.816987298107172 0  0.1830127018925305 1.816987298107172 0  0.1830127018925305 1.566987298106514 0  3.816987298107147 0.4330127018939045 0  2.304262186934561 0.616816807521863 0  2.567316981616268 0.6312130245741218 0  2.575275509145684 0.8477364761922117 0  3.593291471426365 1.42386151546811 0  0.4067110308000575 0.5759984370786184 0  3.4568079299974 0.3775589659297276 0  0.5433540482060789 1.623875834571284 0  2.885289318557399 1.035892870065195 0  2.650658017317971 1.036777264656861 0  1.127970216127178 0.9796940565934761 0  3.61931073891147 0.5422028753103691 0  3.440927955785962 1.605294286843069 0  0.5590720442151041 0.3947057131574874 0  0.3806892610882634 1.45779712468988 0  2.068924609720675 1.022660837372786 0  2.341074041235895 1.188832775316187 0  2.18592330143686 0.8350645917671413 0  3.442144072694577 0.5537364374543685 0  0.5580179055092813 1.44769836304682 0  2.458072732952079 1.001236529710542 0  2.265691533063607 0.9997919868515381 0  0.8598622775600397 0.8022292942516638 0  0.8157980211770282 0.9004160989907908 0  0.9532865610925081 0.9058353736174807 0  0.6783094812615482 0.8949968243641009 0  0.7717337647940166 0.9986029037299178 0  0.5848851977290799 0.791390744998284 0  0.5408209413460683 0.889577549737411 0  0.727669508411005 1.096789708469045 0  0.8651580483264849 1.102208983095735 0  3.140190469362035 1.194818505424251 0  3.186331600063223 1.097671150656105 0  3.04885897430441 1.091361174223712 0  3.323804225822036 1.103981127088497 0  3.23247273076441 1.000523795887958 0  3.415135720879662 1.207438458289035 0  3.461276851580849 1.110291103520889 0  3.278613861465598 0.9033764411198115 0  3.141141235706785 0.8970664646874194 0  0.9360427842675632 0.7115829322910983 0  0.7985542443520831 0.7061636576644084 0  0.7372462111441265 0.6100980210771529 0  0.6610657044366032 0.7007443830377185 0  0.8134267178516498 0.5194516591165874 0  0.6759381779361698 0.5140323844898975 0  0.5235771645211232 0.6953251084110286 0  3.064008711541834 1.28553489111173 0  3.201481337300647 1.291844867544123 0  3.262772205239258 1.388871229663994 0  3.33895396305946 1.298154843976515 0  3.186590447419056 1.479587615351473 0  3.324063073177869 1.485897591783865 0  3.476426588818273 1.304464820408907 0  1.374999999999945 1.500000000000813 0  1.377147403695425 1.396188061550702 0  1.252147403692399 1.463175359658932 0  1.50214740369845 1.329200763442472 0  1.379294807390904 1.292376123100591 0  1.625000000005997 1.366025403784353 0  1.627147403701476 1.262213465334241 0  1.381442211086383 1.188564184650479 0  1.256442211083358 1.25555148275871 0  1.625000000002612 1.46479103958043 0  1.750000000005637 1.3978037414722 0  1.499999999999586 1.53177833768866 0  1.62499
[...]
<PointData  Scalars="ud"> 
<DataArray  type="Float64"  Name="ud"  format="ascii">0.0000000000000000e+00  0.0000000000000000e+00  0.0000000000000000e+00  0.0000000000000000e+00  1.1533411058249216e-01  2.1529033975406728e-01  2.9986868751455525e-01  3.6906915386410422e-01  4.2289173880271597e-01  4.6133644233038762e-01  4.8440326444711901e-01  4.9209220515291047e-01  4.8440326444767773e-01  4.6133644233133680e-01  4.2289173880388803e-01  3.6906915386533090e-01  2.9986868751566259e-01  2.1529033975488396e-01  1.1533411058299678e-01  2.3835716187050296e-01  4.6133644232996213e-01  6.6893784137860035e-01  8.6116135901625757e-01  1.0380069952427065e+00  1.1994747500582159e+00  1.3455646234627863e+00  1.4762766154564169e+00  1.5916107260391059e+00  1.6915669552108554e+00  1.7761453029716674e+00  1.8453457693215394e+00  1.8991683542604774e+00  1.9376130577884738e+00  1.9606798799055283e+00  1.9683688206116419e+00  1.9606798799067311e+00  1.9376130577907136e+00  1.8991683542635895e+00  1.8453457693253581e+00  1.7761453029760135e+00  1.6915669552155597e+00  1.5916107260439964e+00  1.4762766154613227e+00  1.3455646234675405e+00  1.1994747500626486e+00  1.0380069952466475e+00  8.6116135901953783e-01  6.6893784138131784e-01  4.6133644233198862e-01  2.3835716187154990e-01  1.1533411058260745e-01  2.1529033975424411e-01  2.9986868751477125e-01  3.6906915386434180e-01  4.2289173880271552e-01  4.6133644233029847e-01  4.8440326444699899e-01  4.9209220515291047e-01  4.8440326444784021e-01  4.6133644233161619e-01  4.2289173880423836e-01  3.6906915386570677e-01  2.9986868751601464e-01  2.1529033975516620e-01  1.1533411058316119e-01  2.3835716187170478e-01  4.6133644233210414e-01  6.6893784138194790e-01  8.6116135902054025e-01  1.0380069952461568e+00  1.1994747500608267e+00  1.3455646234645313e+00  1.4762766154573672e+00  1.5916107260394305e+00  1.6915669552106156e+00  1.7761453029712546e+00  1.8453457693210253e+00  1.8991683542598605e+00  1.9376130577879920e+00  1.9606798799052199e+00  1.9683688206116419e+00  1.9606798799070797e+00  1.9376130577913659e+00  1.8991683542645017e+00  1.8453457693264856e+00  1.7761453029773060e+00  1.6915669552169696e+00  1.5916107260454768e+00  1.4762766154628275e+00  1.3455646234690211e+00  1.1994747500640588e+00  1.0380069952479405e+00  8.6116135902066548e-01  6.6893784138223333e-01  4.6133644233264565e-01  2.3835716187190059e-01  2.0334893012065760e+00  2.2715101199918055e+00  2.0254640174107053e+00  2.2878956067475991e+00  1.5305585900076961e+00  1.5305585900097511e+00  1.1543492828300999e+00  1.1543492828301603e+00  2.0248280229757536e+00  2.3255791043273053e+00  2.4504713124042943e+00  2.3857005135965981e+00  1.9475511274371782e+00  2.0254640174160810e+00  1.9482036008027306e+00  2.3026077117692796e+00  2.2706437421806780e+00  1.4710162958262505e+00  1.2517442568652917e+00  1.4696948486559960e+00  1.2516929423434473e+00  2.1636140758790554e+00  2.1926271910500574e+00  2.1786328082382633e+00  9.4885377957208294e-01  9.4885377957181860e-01  9.4885377957100081e-01  9.4885377957333106e-01  1.7470888427182583e+00  1.7567798413602966e+00  2.3710369241448035e+00  2.4323015853452663e+00  1.6368881129169068e+00  1.5425454086996222e+00  1.8749637369892453e+00  1.6372519577922751e+00  1.5369038611025974e+00  1.8704135811278622e+00  1.7646186186310446e+00  1.4187227547638965e+00  1.7653058619691975e+00  1.4187737849235837e+00  2.2451706860114609e+00  2.3145439946251178e+00  2.1232704401327038e+00  2.1417891493949837e+00  2.3083646028419600e+00  2.3697467756054573e+00  2.2672298126350832e+00  1.2335684876648920e+00  1.4729667615459077e+00  1.2335770430511215e+00  1.4786747421380451e+00  7.8680519055874287e-01  8.5220666241577447e-01  1.8082401642315629e+00  2.0114790468729762e+00  2.1788817251626837e+00  2.2038750203842348e+00  2.3270677518244773e+00  2.0123134192382119e+00  2.1524966262222920e+00  2.1872628678367549e+00  2.0891837074812338e+00  2.1506952331238849e+00  2.1941733129101952e+00  2.3257379214226939e+00  7.8680519055861331e-01  8.5220666241573995e-01  1.9656503309358020e+00  1.8085183726235217e+00  1.5330293582825330e+00  1.7811591951789330e+00  2.1476306973295078e+00  2.0890921284009920e+00  1.2257323771089552e+00  1.5330293582806731e+00  1.7816260792608432e+00  2.1018640518551983e+00  1.9661606561929377e+00  2.1678226577955866e+00  2.1569800523324281e+00  1.2257323771106539e+00  2.4174763001804411e+00  2.3902398660026316e+00  1.9721641773564604e+00  2.1862202186259405e+00  2.2989480634359971e+00  2.3887341933361101e+00  2.4490593155631282e+00  1.9661606561879998e+00  1.7816260792554381e+00  1.7873904757896542e+00  2.3908882145437622e+00  1.7869702119299340e+00  1.9286479028469650e+00  1.6308656199567617e+00  1.7823169716093803e+00  1.9302863018576897e+00  1.6355003930334957e+00  2.1216533228666870e+00  1.9778478270755622e+00  1.9915445045269715e+00  2.3773039161493905e+00  2.4300898671000799e+00  9.0216316335046975e-01  8.4511141588099536e-01  1.5018915925512455e+00  1.1906874056185017e+00  9.0215279737194376e-01  8.4506659177219845e-01  1.5009348848271569e+00  1.1897705519987187e+00  2.0996987563494813e+00  2.2708865352418783e+00  2.0381872307044304e+00  9.2369769733903484e-01  5.0739081702936484e-01  6.7765159476073267e-01  5.0739081702918920e-01  5.0739081703005418e-01  9.2369769733968976e-01  6.7765159476140924e-01  9.2369769733833129e-01  9.2369769733627138e-01  5.0739081702875932e-01  6.7765159476080783e-01  6.7765159476161785e-01  2.3426517714061110e+00  2.2351554331048527e+00  2.2861983361983262e+00  1.1228381321413834e+00  1.1227836243086617e+00  1.2254463010341405e+00  1.2247985600439013e+00  2.0741561083392455e+00  2.2514653214931646e+00  2.0860535201859234e+00  1.0669811497880584e+00  1.2584497630829152e+00  1.2584497630847582e+00  1.0669811497875210e+00  2.4578705956212024e+00  2.3856682667959959e+00  2.4300639179952195e+00  1.3390169953287729e+00  1.3386156983464894e+00  2.3572042565798514e+00  2.4257232360817715e+00  1.8015361396836911e+00  1.7655031791650133e+00  1.9169569953608385e+00  1.5954163239558912e+00  1.7180710923510822e+00  1.4536070471368256e+00  1.4066964297334721e+00  1.6592398792418968e+00  1.8215713523223975e+00  1.8020472865370694e+00  1.7632045972877737e+00  1.9150004308071378e+00  1.5927697492892778e+00  1.7129782283547959e+00  1.4538176145683495e+00  1.4036958868116500e+00  1.6513681797381325e+00  1.8144430517649015e+00  1.8624758130110064e+00  1.7076526129208001e+00  1.6009872062041193e+00  1.5341963738172970e+00  1.6539795442972931e+00  1.4815399195336481e+00  1.3421070957004961e+00  1.8632359230269595e+00  1.7081845002525080e+00  1.6013593306859566e+00  1.5344940629989254e+00  1.6544134176294434e+00  1.4815717778374129e+00  1.3421646112662104e+00  2.1452144568380351e+00  2.1923148964990045e+00  2.0796727355987592e+00  2.2851628471453442e+00  2.2288043225058627e+00  2.3253327049309820e+00  2.3582165875377799e+00  2.2546827348586120e+00  2.1562571310125391e+00  2.2849535307178610e+00  2.3518327458489368e+00  2.1982801053328807e+00  2.2349739812454246e+00  2.0918124696939957e+00  2.1753940565136718e+00  2.2552960845756664e+00  2.3370583700348679e+00  2.3232884817499277e+00  2.2843048131254045e+00  2.3457977926577720e+00  2.2960343865968609e+00  2.3859608234593681e+00  2.2366706052766334e+00  1.2502868017193904e+00  1.3907980990766766e+00  1.3626394524331049e+00  1.5125657407785513e+00  1.2015893147017949e+00  1.3192199468809354e+00  1.6155897268250139e+00  1.2502739753133638e+00  1.3938387708860758e+00  1.3657031468065208e+00  1.5182490580349131e+00  1.2016021455567201e+00  1.3222895574948070e+00  1.6235048367598754e+00  6.6304554542640415e-01  6.7939591339040883e-01  6.3131729605124587e-01  8.2719486719283564e-01  5.8421116526493377e-01  9.7685122974713112e-01  1.0105244522290042e+00  1.9241708080383613e+00  1.9162505455291647e+00  2.0244759028409924e+00  1.7927517593479319e+00  1.8956855471867133e+00  1.6770360915553602e+00  1.9858374550717051e+00  2.2328740859969702e+00  2.2601426026767566e+00  2.3064197208243717e+00  2.1985091576896898e+00  2.2731495495240819e+00  2.1095330374889447e+00  2.1215193858631709e+00  2.2718949265389465e+00  2.3334542129921219e+00  2.0252586208593470e+00  2.1065608860215552e+00  2.1121701934374362e+00  2.0882117735412704e+00  2.1762496495617243e+00  1.9866284125526730e+00  2.0571228559965835e+00  2.2343249114798578e+00  2.2507420406140359e+00  2.0518430861631476e+00  2.0672209675733035e+00  2.0210873233418405e+00  2.1276284110081347e+00  1.9749536791093822e+00  2.1880358544420417e+00  2.2187916172633853e+00  2.2504078350359857e+00  2.2657623679774632e+00  2.3144383296262103e+00  2.1983396559145381e+00  2.2658737698368134e+00  2.1191920403702267e+00  2.3217943821370501e+00  6.6304554542625538e-01  6.7939591339037630e-01  6.3131729605102616e-01  8.2719486719273072e-01  5.8421116526468941e-01  9.7685122974710403e-01  1.0105244522290013e+00  2.1416735750181290e+00  2.0350951826282437e+00  2.0799549687547647e+00  1.9131389088273147e+00  2.0028800356519478e+00  1.9246179622477095e+00  1.9168970875718636e+00  1.7932820198285622e+00  1.8964364078316136e+00  1.6771652485435173e+00  1.5120559257592410e+00  1.6647309911654353e+00  1.6363696243107904e+00  1.6782864802469586e+00  1.8021026185918090e+00  1.5391969130327030e+00  1.9106453280672535e+00  2.0203836970778308e+00  1.9749932920235433e+00  2.0503962207212827e+00  2.1260503535706601e+00  2.0650308629539116e+00  2.2161683237384300e+00  2.1876422784533700e+00  1.3737201548204958e+00  1.5120559257575390e+00  1.2200065024723432e+00  1.3870698084003688e+00  1.0509149687130810e+00  1.3856135842071609e+00  1.5391969130307259e+00  1.6649544859986662e+00  1.6366402880666182e+00  1.6784628061576334e+00  1.8024751648287236e+00  1.9112339890439971e+00  2.2036906702560781e+00  2.1557076230882517e+00  2.0433857292311566e+00  2.0889778255062468e+00  1.9824157515449576e+00  1.9134421534647030e+00  2.0035012775100642e+00  1.8362603620662967e+00  1.7440039338941213e+00  1.8810937037629452e+00  2.1921712070065387e+00  2.2545152665397823e+00  2.1154914191069421e+00  2.0968187165174581e+00  2.0655012780947182e+00  2.0561073960162504e+00  2.0698863961352365e+00  2.0269505144861575e+00  2.1371109927993666e+00  2.2296497892032150e+00  1.3737201548221574e+00  1.2200065024739173e+00  1.3870698084021715e+00  1.0509149687145209e+00  1.3856135842090640e+00  2.3660165818672150e+00  2.3381872804483645e+00  2.3795843134536043e+00  2.4109888680077671e+00  2.3788904752075331e+00  2.4413365792460282e+00  2.4276678766546085e+00  2.0110133998046829e+00  2.0869665411537355e+00  2.1183931841493369e+00  2.0391665771118044e+00  2.1458428340366309e+00  1.9169416338619079e+00  2.2369704046363874e+00  2.1561307483141352e+00  2.2318527522632783e+00  2.2309783210882927e+00  2.2921968748013404e+00  2.2917636858957762e+00  1.8365527464097846e+00  1.7442854579437559e+00  1.8815823084324450e+00  2.4415414039653243e+00  2.4575086646243820e+00  2.4108485973989460e+00  2.4262595274032792e+00  2.3654302449252471e+00  2.3954909495598935e+00  2.4251232652205341e+00  1.7442854579386169e+00  1.6366402880613966e+00  1.8365527464048970e+00  1.8815823084271879e+00  1.9134421534602390e+00  2.0035012775048213e+00  1.9112339890385412e+00  1.7476653760232903e+00  1.6399604249879318e+00  1.8399924456479670e+00  1.8874662672784648e+00  1.9185667678625351e+00  2.3521766365321337e+00  2.3975318233606360e+00  2.3522304264410252e+00  2.4282624352868472e+00  2.3383486501750395e+00  1.6376726072314716e+00  1.7185076236644841e+00  1.5563942205626327e+00  1.8632623200595761e+00  1.7884361147552430e+00  1.9189091099216353e+00  1.9906583097479078e+00  1.8474580805037490e+00  1.6944304940086357e+00  1.6346902947766957e+00  1.7186997754394857e+00  1.5581633828510828e+00  1.8618673987398726e+00  1.7915777320896005e+00  1.9125748791540500e+00  1.9876662527522453e+00  1.8533241647270411e+00  1.7017058792032334e+00  2.0833467206175995e+00  2.0307747048010527e+00  2.0593402826922618e+00  1.9590232735422315e+00  2.1484091079538388e+00  2.0763550434215352e+00  1.8680924268411367e+00  2.0327379159271199e+00  2.0671985654478857e+00  1.9662209100193864e+00  2.0910482013145404e+00  1.8801217178755569e+00  2.4042196513785083e+00  2.4131673947556265e+00  2.3787975502847112e+00  2.4119340704830750e+00  2.3369010914742345e+00  2.4091040807730679e+00  2.4364679306299601e+00  6.6078516219099193e-01  6.1576646250171230e-01  6.9042598046942216e-01  8.8132623032114121e-01  7.0468891733703110e-01  1.0845149431932224e+00  1.0571040140021875e+00  1.2021423620670302e+00  1.0320740268682973e+00  1.3568328158548073e+00  1.3539784397902843e+00  1.4961453882316667e+00  1.4935152284161068e+00  1.3370014952711533e+00  6.6076657295723418e-01  6.1573925873525703e-01  6.9041600576827122e-01  8.8129863527754104e-01  7.0468755716836828e-01  1.0844879257636368e+00  1.0570511529749287e+00  1.2016099392212050e+00  1.0315515675481359e+00  1.3562904294833347e+00  1.3530416591184076e+00  1.4955930383345244e+00  1.4923021549343141e+00  1.3358183123680054e+00  8.8481534233742098e-01  1.0504488081256751e+00  1.0751123051137479e+00  1.6533203875238300e+00  1.7942416280871527e+00  1.6525577816050110e+00  8.8481871250992117e-01  1.0504569086393720e+00  1.0751113998175836e+00  1.6499648666853051e+00  1.7889588136251469e+00  1.6493148689237382e+00  2.1350815077750185e+00  2.0388339761102197e+00  2.2169051201134136e+00  2.1906762441554837e+00  2.1509631613294271e+00  2.3563342387203874e+00  2.3379046977159157e+00  2.3009888610270379e+00  2.3029279645243652e+00  2.2294548164798442e+00  2.0587750904211495e+00  2.0103598297373657e+00  2.0976771307551760e+00  1.9465666876426426e+00  2.1202073985069019e+00  4.8903616169141195e-01  2.6193639032551247e-01  7.0075805164641292e-01  7.2323319788977547e-01  8.9710206019046734e-01  9.4094827046624041e-01  7.3636328011155405e-01  3.6601311040238244e-01  2.6193639032541549e-01  4.5471194906830265e-01  6.0021014660045380e-01  5.2803290632320077e-01  8.1792521917693939e-01  7.3636328011132457e-01  7.0075805164701477e-01  8.9710206019085037e-01  4.8903616169202269e-01  7.2323319789045004e-01  2.6193639032587429e-01  7.3636328011253982e-01  9.4094827046718332e-01  3.6601311040273588e-01  4.5471194906857898e-01  6.0021014660120975e-01  5.2803290632342947e-01  8.1792521917804295e-01  7.0075805164597860e-01  8.9710206018959782e-01  4.8903616169125130e-01  7.2323319788931428e-01  9.4094827046573737e-01  4.8903616169002034e-01  2.6193639032519439e-01  7.0075805164393423e-01  7.2323319788800178e-01  8.9710206018692518e-01  9.4094827046429652e-01  7.3636328011069474e-01  4.5471194906866058e-01  5.2803290632373012e-01  3.6601311040248230e-01  6.0021014660033845e-01  8.1792521917656480e-01  4.5471194906922208e-01  5.2803290632434219e-01  3.6601311040294549e-01  6.0021014660106964e-01  8.1792521917753047e-01  2.2161406854262395e+00  2.1425454472630050e+00  2.2726590751233164e+00  2.2974420264885604e+00  2.3121006163542366e+00  2.3622972073362996e+00  2.3113192587321190e+00  2.2121489096397973e+00  2.2296244150852904e+00  2.1831225870323689e+00  2.2664522932325575e+00  2.3333358392181642e+00  7.6701628380156928e-01  9.8864730602185036e-01  9.0892104108010285e-01  1.1929259729840442e+00  1.0414807343373067e+00  7.6698665910437203e-01  9.8859764005110307e-01  9.0888899545214130e-01  1.1928658491636228e+00  1.0414462677785647e+00  1.0610703673125121e+00  1.2127393853370014e+00  1.0807216437353635e+00  1.3521091142639381e+00  1.0910278561368554e+00  1.0606151861500956e+00  1.2119570880319706e+00  1.0803337407307345e+00  1.3511277658325496e+00  1.0907072312900516e+00  2.2065427913573163e+00  2.2816251235484715e+00  2.1179149741980177e+00  2.1695834574002766e+00  2.0157416720705759e+00  2.1234469096087389e+00  2.2121283056033598e+00  2.2250949846057835e+00  2.1316332337305286e+00  2.1862844131922370e+00  2.0225427118986015e+00  2.1380835522991446e+00  1.9927003318761103e+00  2.0234560946986355e+00  2.0766319342324269e+00  9.3156570218408041e-01  1.1145101209558195e+00  7.3607329730692184e-01  8.7859036532754686e-01  1.0117623693268125e+00  1.2467636021065984e+00  1.3991900711185945e+00  1.0794009317969326e+00  1.0985418308594566e+00  1.1083376659006565e+00  1.2467636021083788e+00  1.3991900711205589e+00  1.0794009317984758e+00  1.0985418308610855e+00  1.1083376659023489e+00  9.3156570218372792e-01  1.1145101209555757e+00  7.3607329730644566e-01  8.7859036532688151e-01  1.0117623693259961e+00  2.4587371599994521e+00  2.4582919906993541e+00  2.4436956280182098e+00  2.4517235820013115e+00  2.4492071271698395e+00  2.3560743233457226e+00  2.3600044241350844e+00  2.3891076570137568e+00  2.3486913938423188e+00  2.4135383306303120e+00  2.3715974429051041e+00  2.4159289258303334e+00  2.3939405165134842e+00  2.4450950651299244e+00  2.4053778710001792e+00  1.4116001970776610e+00  1.2860765528281977e+00  1.2068768883921583e+00  1.1527972769112489e+00  1.2532666905795862e+00  1.2754918531057724e+00  1.3442465524839562e+00  1.1975495379839203e+00  1.4108036816520957e+00  1.2855520338419306e+00  1.2066794855496061e+00  1.1525382630665642e+00  1.2531308987391778e+00  1.2754390841095835e+00  1.3442138247618955e+00  1.1975159408435345e+00  2.3350014688302676e+00  2.3774497570221080e+00  2.3960171508904922e+00  2.4107912360945862e+00  2.3692160750180293e+00  2.4043935754474712e+00  2.4350259060477026e+00  2.4320146137251011e+00  2.4499807521423951e+00  2.4466243657816547e+00  1.4114451411084670e+00  1.4905032323356993e+00  1.5584997422514841e+00  1.4142109822486049e+00  1.4928355907006969e+00  1.5637359757366229e+00  2.0444985755040750e+00  1.9864681735195069e+00  1.9389945088451592e+00  2.0316938075492454e+00  1.9779089366777791e+00  1.9286925216012998e+00  2.3090529980831072e+00  2.2739273135014475e+00  2.3262899033063378e+00  </DataArray> 
</PointData> 
</Piece>
</UnstructuredGrid>
</VTKFile>