<?xml version="1.0"?>
<VTKFile type="UnstructuredGrid"  version="0.1"  >
<UnstructuredGrid>
<Piece  NumberOfPoints="12249" NumberOfCells="63488">
<Points>
<DataArray  type="Float64"  NumberOfComponents="3"  format="ascii">0 1 0  0 -1 0  0 0 1  0 0 -1  4 0 1  4 -1 0  4 0 -1  4 1 0  0 0.9951847266528545 0.09801714052594666  0 0.9807852803124523 0.195090322472501  0 0.9569403355451391 0.2902846778711485  0 0.923879532179443 0.3826834331662315  0 0.8819212638015185 0.4713967378490568  0 0.8314696114892164 0.5555702342368348  0 0.7730104522021014 0.634393285577884  0 0.707106779577703 0.7071067827953921  0 0.6343932827014409 0.7730104545627372  0 0.5555702316337635 0.8314696132285331  0 0.4713967356826518 0.8819212649594861  0 0.3826834315824063 0.9238795328354849  0 0.2902846766602092 0.9569403359124736  0 0.1950903216694607 0.9807852804721869  0 0.09801714013406626 0.9951847266914514  0 -0.09801714052594666 0.9951847266528545  0 -0.195090322472501 0.9807852803124523  0 -0.2902846778711485 0.9569403355451391  0 -0.3826834331662315 0.923879532179443  0 -0.4713967378490568 0.8819212638015185  0 -0.5555702342368348 0.8314696114892164  0 -0.634393285577884 0.7730104522021014  0 -0.7071067827953921 0.707106779577703  0 -0.7730104545627372 0.6343932827014409  0 -0.8314696132285331 0.5555702316337635  0 -0.8819212649594861 0.4713967356826518  0 -0.9238795328354849 0.3826834315824063  0 -0.9569403359124736 0.2902846766602092  0 -0.9807852804721869 0.1950903216694607  0 -0.9951847266914514 0.09801714013406626  0 -0.9951847266528545 -0.09801714052594666  0 -0.9807852803124523 -0.195090322472501  0 -0.9569403355451391 -0.2902846778711485  0 -0.923879532179443 -0.3826834331662315  0 -0.8819212638015185 -0.4713967378490568  0 -0.8314696114892164 -0.5555702342368348  0 -0.7730104522021014 -0.634393285577884  0 -0.707106779577703 -0.7071067827953921  0 -0.6343932827014409 -0.7730104545627372  0 -0.5555702316337635 -0.8314696132285331  0 -0.4713967356826518 -0.8819212649594861  0 -0.3826834315824063 -0.9238795328354849  0 -0.2902846766602092 -0.9569403359124736  0 -0.1950903216694607 -0.9807852804721869  0 -0.09801714013406626 -0.9951847266914514  0 0.09801714052594666 -0.9951847266528545  0 0.195090322472501 -0.9807852803124523  0 0.2902846778711485 -0.9569403355451391  0 0.3826834331662315 -0.923879532179443  0 0.4713967378490568 -0.8819212638015185  0 0.5555702342368348 -0.8314696114892164  0 0.634393285577884 -0.7730104522021014  0 0.7071067827953921 -0.707106779577703  0 0.7730104545627372 -0.6343932827014409  0 0.8314696132285331 -0.5555702316337635  0 0.8819212649594861 -0.4713967356826518  0 0.9238795328354849 -0.3826834315824063  0 0.9569403359124736 -0.2902846766602092  0 0.9807852804721869 -0.1950903216694607  0 0.9951847266914514 -0.09801714013406626  4 -0.09801714052594666 0.9951847266528545  4 -0.195090322472501 0.9807852803124523  4 -0.2902846778711485 0.9569403355451391  4 -0.3826834331662315 0.923879532179443  4 -0.4713967378490568 0.8819212638015185  4 -0.5555702342368348 0.8314696114892164  4 -0.634393285577884 0.7730104522021014  4 -0.7071067827953921 0.707106779577703  4 -0.7730104545627372 0.6343932827014409  4 -0.8314696132285331 0.5555702316337635  4 -0.8819212649594861 0.4713967356826518  4 -0.9238795328354849 0.3826834315824063  4 -0.9569403359124736 0.2902846766602092  4 -0.9807852804721869 0.1950903216694607  4 -0.9951847266914514 0.09801714013406626  4 -0.9951847266528545 -0.09801714052594666  4 -0.9807852803124523 -0.195090322472501  4 -0.9569403355451391 -0.2902846778711485  4 -0.923879532179443 -0.3826834331662315  4 -0.8819212638015185 -0.4713967378490568  4 -0.8314696114892164 -0.5555702342368348  4 -0.7730104522021014 -0.634393285577884  4 -0.707106779577703 -0.7071067827953921  4 -0.6343932827014409 -0.7730104545627372  4 -0.5555702316337635 -0.8314696132285331  4 -0.4713967356826518 -0.8819212649594861  4 -0.3826834315824063 -0.9238795328354849  4 -0.2902846766602092 -0.9569403359124736  4 -0.1950903216694607 -0.9807852804721869  4 -0.09801714013406626 -0.9951847266914514  4 0.09801714052594666 -0.9951847266528545  4 0.195090322472501 -0.9807852803124523  4 0.2902846778711485 -0.9569403355451391  4 0.3826834331662315 -0.923879532179443  4 0.4713967378490568 -0.8819212638015185  4 0.5555702342368348 -0.8314696114892164  4 0.634393285577884 -0.7730104522021014  4 0.7071067827953921 -0.707106779577703  4 0.7730104545627372 -0.6343932827014409  4 0.8314696132285331 -0.5555702316337635  4 0.8819212649594861 -0.4713967356826518  4 0.9238795328354849 -0.3826834315824063  4 0.9569403359124736 -0.2902846766602092  4 0.9807852804721869 -0.1950903216694607  4 0.9951847266914514 -0.09801714013406626  4 0.9951847266528545 0.09801714052594666  4 0.9807852803124523 0.195090322472501  4 0.9569403355451391 0.2902846778711485  4 0.923879532179443 0.3826834331662315  4 0.8819212638015185 0.4713967378490568  4 0.8314696114892164 0.5555702342368348  4 0.7730104522021014 0.634393285577884  4 0.707106779577703 0.7071067827953921  4 0.6343932827014409 0.7730104545627372  4 0.5555702316337635 0.8314696132285331  4 0.4713967356826518 0.8819212649594861  4 0.3826834315824063 0.9238795328354849  4 0.2902846766602092 0.9569403359124736  4 0.1950903216694607 0.9807852804721869  4 0.09801714013406626 0.9951847266914514  0.1249999999997645 0 1  0.2499999999994862 0 1  0.3749999999992946 0 1  0.4999999999991029 0 1  0.6249999999987392 0 1  0.7499999999983755 0 1  0.8749999999980118 0 1  0.9999999999976482 0 1  1.124999999997289 0 1  1.24999999999693 0 1  1.374999999996571 0 1  1.499999999996212 0 1  1.624999999995853 0 1  1.749999999995494 0 1  1.874999999995135 0 1  1.999999999994776 0 1  2.1249999999951 0 1  2.249999999995424 0 1  2.374999999995747 0 1  2.499999999996071 0 1  2.624999999996395 0 1  2.749999999996719 0 1  2.874999999997043 0 1  2.999999999997367 0 1  3.124999999997696 0 1  3.249999999998025 0 1  3.374999999998354 0 1  3.499999999998683 0 1  3.624999999999012 0 1  3.749999999999341 0 1  3.87499999999967 0 1  0.1249999999997645 -1 0  0.2499999999994862 -1 0  0.3749999999992946 -1 0  0.4999999999991029 -1 0  0.6249999999987392 -1 0  0.7499999999983755 -1 0  0.8749999999980118 -1 0  0.9999999999976482 -1 0  1.124999999997289 -1 0  1.24999999999693 -1 0  1.374999999996571 -1 0  1.499999999996212 -1 0  1.624999999995853 -1 0  1.749999999995494 -1 0  1.874999999995135 -1 0  1.999999999994776 -1 0  2.1249999999951 -1 0  2.249999999995424 -1 0  2.374999999995747 -1 0  2.499999999996071 -1 0  2.624999999996395 -1 0  2.749999999996719 -1 0  2.874999999997043 -1 0  2.999999999997367 -1 0  3.124999999997696 -1 0  3.249999999998025 -1 0  3.374999999998354 -1 0  3.499999999998683 -1 0  3.624999999999012 -1 0  3.749999999999341 -1 0  3.87499999999967 -1 0  0.1249999999997645 0 -1  0.2499999999994862 0 -1  0.3749999999992946 0 -1  0.4999999999991029 0 -1  0.6249999999987392 0 -1  0.7499999999983755 0 -1  0.8749999999980118 0 -1  0.9999999999976482 0 -1  1.124999999997289 0 -1  1.24999999999693 0 -1  1.374999999996571 0 -1  1.499999999996212 0 -1  1.624999999995853 0 -1  1.749999999995494 0 -1  1.874999999995135 0 -1  1.999999999994776 0 -1  2.1249999999951 0 -1  2.249999999995424 0 -1  2.374999999995747 0 -1  2.499999999996071 0 -1  2.624999999996395 0 -1  2.749999999996719 0 -1  2.874999999997043 0 -1  2.999999999997367 0 -1  3.124999999997696 0 -1  3.249999999998025 0 -1  3.374999999998354 0 -1  3.499999999998683 0 -1  3.624999999999012 0 -1  3.749999999999341 0 -1  3.87499999999967 0 -1  0.1249999999997645 1 0  0.2499999999994862 1 0  0.3749999999992946 1 0  0.4999999999991029 1 0  0.6249999999987392 1 0  0.7499999999983755 1 0  0.8749999999980118 1 0  0.9999999999976482 1 0  1.124999999997289 1 0  1.24999999999693 1 0  1.374999999996571 1 0  1.499999999996212 1 0  1.624999999995853 1 0  1.749999999995494 1 0  1.874999999995135 1 0  1.999999999994776 1 0  2.1249999999951 1 0  2.249999999995424 1 0  2.374999999995747 1 0  2.499999999996071 1 0  2.624999999996395 1 0  2.749999999996719 1 0  2.874999999997043 1 0  2.999999999997367 1 0  3.124999999997696 1 0  3.249999999998025 1 0  3.374999999998354 1 0  3.499999999998683 1 0  3.624999999999012 1 0  3.749999999999341 1 0  3.87499999999967 1 0  0 0.2687658172239241 0.1113264469546516  0 -0.3632776934580825 -0.1504745480221339  0 0.1820395197732083 -0.4510798723263696  0 -0.1902402587217505 0.4476830150214721  0 0.4879362984008135 0.4092166148750218  0 0.6343829086119621 0.0556632234773258  0 0.5910197598866042 -0.2255399361631848  0 0.4445731512843002 -0.5790933259520363  0 0.2254026684985662 -0.169876712685859  0 -0.5951201293608752 0.2238415075107361  0 -0.4486735207585713 0.5773948972995875  0 -0.5351922365178927 -0.428790665408763  0 -0.6816388467290413 -0.07523727401106695  0 -0.2767589760899165 0.1486042334996691  0 -0.09512012936087527 0.7238415075107361  0 0.2584332604279762 0.5773948989084321  0 0.09101975988660417 -0.7255399361631848  0 -0.2625336299022473 -0.5790933275608808  0 0.03926277925108676 0.2795047309880618  0 -0.09061908684243711 -0.3007772101742517  0 -0.04725593811707923 -0.01957405053374114  0 0.7791312203957026 0.2191733283217787  0 0.8171914543059811 0.0278316117386629  0 0.7059079152901282 0.3959500240206266  0 0.5611596035063878 0.2324399191761738  0 0.5975215389892583 0.5581616988352069  0 0.3783510578123688 0.2602715309148367  0 0.4515743629179431 0.0834948352159887  0 0.6842263420598925 -0.4808883787672213  0 0.5758399670398462 -0.6431000527648696  0 0.7574496463610445 -0.3041116838727955  0 0.5177964555854522 -0.4023166310576106  0 0.795509879943302 -0.1127699680815924  0 0.3865296398299062 -0.3383099042447772  0 0.3133063355287543 -0.515086599139203  0 0.6127013342492831 -0.08493835634292948  0 0.4298927885552641 -0.05710674460426658  0 0.4082112141925852 -0.1977083244245219  0 0.2470842428612451 -0.02927513286560368  0 0.2037210941358873 -0.3104782925061143  0 -0.6862765267970281 0.4800391644409969  0 -0.5778901517769817 0.6422508384386452  
[...]
<PointData  Scalars="U"> 
<DataArray  type="Float64"  Name="U"  format="ascii">2.3482607332062658e-02  2.4216781960768746e-02  2.5656598896253512e-02  2.5665526921770505e-02  -2.4462642795289899e-04  -3.8220156250643535e-04  6.5993522291029184e-04  -3.8597969891590253e-04  2.3502856656163907e-02  2.3452037342113208e-02  2.3424271258078475e-02  2.3333477681220221e-02  2.3458969942035841e-02  2.3636567003491610e-02  2.4372368105663709e-02  2.7974733131882132e-02  2.4279080297261609e-02  2.3819173443534691e-02  2.3821138090270116e-02  2.4055036199186551e-02  2.4198380064728540e-02  2.4472300824143697e-02  2.4805097613235835e-02  2.6518569056944139e-02  2.6504503773296193e-02  2.6509008869640600e-02  2.6605261894565097e-02  2.6698950725794323e-02  2.7022235639653173e-02  2.7949213878239253e-02  3.1944997027423871e-02  2.8083474916097667e-02  2.6811766129052596e-02  2.6216569567411637e-02  2.5872083962615748e-02  2.5538092323563868e-02  2.5298691934573361e-02  2.5033193277772092e-02  2.5940904011693536e-02  2.6043110951760349e-02  2.6033344576461195e-02  2.6089926490269706e-02  2.6111984177825218e-02  2.6278421036233325e-02  2.6677331164703274e-02  2.8409237206783570e-02  2.4381923784082736e-02  2.3856560918398963e-02  2.3875072157015006e-02  2.3933540760620483e-02  2.4219121606217538e-02  2.4421970768033086e-02  2.4734245758490096e-02  2.6678562033973039e-02  2.6496417699688551e-02  2.6364717853359542e-02  2.6346608492068577e-02  2.6349677737064398e-02  2.6613483102754180e-02  2.7478938388790831e-02  3.1701656458363162e-02  2.5701305582680169e-02  2.4370712080434509e-02  2.3907546143652311e-02  2.3544317921530295e-02  2.3402995113557357e-02  2.3271559522038920e-02  2.3313345807654390e-02  -2.5195958729287682e-04  -2.3682029160514042e-04  -2.1133420893685735e-04  -1.8339140189609033e-04  -1.5613066854141012e-04  -1.3064617635632112e-04  -1.0831404897109842e-04  -9.3248862705818674e-05  -9.0947660107503118e-05  -1.0221690319884038e-04  -1.2368625637767557e-04  -1.5521242885169862e-04  -1.9695618660238199e-04  -2.5114534451633260e-04  -3.1550388318136210e-04  -3.7689432423131802e-04  -3.4447319488912175e-04  -2.9002737808739407e-04  -2.2053107512907697e-04  -1.3862375378425536e-04  -4.4419124380923844e-05  6.5346963008695296e-05  1.9726710197358552e-04  3.5257116447136934e-04  5.1483292247689121e-04  6.5754538216346596e-04  7.7147441636425543e-04  8.4782072689784671e-04  8.7231193375829103e-04  8.1928964119565946e-04  4.9821373454984332e-04  3.5880872355891494e-04  2.4494528653068638e-04  1.5232736635628207e-04  7.7447412548230473e-05  1.7290622220880135e-05  -3.2839324403913056e-05  -8.0454530297748502e-05  -1.2830147370389273e-04  -1.7603515071905248e-04  -2.1899018448144197e-04  -2.5667284075532750e-04  -2.8994401073229210e-04  -3.2329169145757969e-04  -3.5734281790775538e-04  -3.7379632878865198e-04  -3.4506422342892501e-04  -3.0983017856624109e-04  -2.7367988870849583e-04  -2.3729401833300109e-04  -1.9878323313562865e-04  -1.5851115801867168e-04  -1.2265850336585151e-04  -8.6995430935943332e-05  -6.3701385354009762e-05  -5.1393051758577649e-05  -5.3707363058236685e-05  -7.2487529265066356e-05  -1.1053702154578813e-04  -1.6992436735259456e-04  7.8090103045640293e-03  3.6004818553521866e-03  1.8821565583169979e-03  1.1283580075424214e-03  8.3165678801848657e-04  7.7597473828571752e-04  8.6158683488354046e-04  1.0397388658924976e-03  1.2912944414817779e-03  1.2944920261846642e-03  1.0984752076999465e-03  8.0788409925614544e-04  5.0497878973623030e-04  2.4626539845348555e-04  6.5441362029763697e-05  -1.7796839738573596e-05  1.2900024960011758e-05  1.1454360552099428e-04  2.6841658306893358e-04  4.5475076130820682e-04  6.2535587845609201e-04  7.3529551645396722e-04  7.2921921287039983e-04  5.8443204861452209e-04  4.2194200844220681e-04  2.8555642955880640e-04  1.6495092494648596e-04  5.7186835485461696e-05  -3.9407979584478106e-05  -1.2567050797237351e-04  -1.9827153694432445e-04  7.9290064332268786e-03  3.9503585645251603e-03  2.3412345063605006e-03  1.6462937750812052e-03  1.3950433445596468e-03  1.3864759367675456e-03  1.5211829425146727e-03  1.7367956964844610e-03  1.9094893343067725e-03  1.8199499436109994e-03  1.5441000101922798e-03  1.1907156098071494e-03  8.3688028407140152e-04  5.4736633642081122e-04  3.4494174460985536e-04  2.4395377695730642e-04  2.6684970647882921e-04  3.7278650037893951e-04  5.4398782507991315e-04  7.5453011175192596e-04  9.5036326978159070e-04  1.0738509226228218e-03  1.0616933469298681e-03  8.8884393539143483e-04  6.3982194849849443e-04  4.1415031471096850e-04  2.1801545927093517e-04  5.1122538816047657e-05  -9.3160990271965932e-05  -2.1693582330805335e-04  -3.1728915900772903e-04  8.0373577015633423e-03  3.7330903044809987e-03  2.1331483163220259e-03  1.5601329579151746e-03  1.4545963854944554e-03  1.5928771838474745e-03  1.8519760881201513e-03  2.1610675966127627e-03  2.3554125141952821e-03  2.2856779308389396e-03  2.0474819433182107e-03  1.7663227929718575e-03  1.5327963679359878e-03  1.4214559400742806e-03  1.4534226851029652e-03  1.5978261024566056e-03  1.6584794636675029e-03  1.5689388015644049e-03  1.3745127042341237e-03  1.1353558023587177e-03  8.8065222554521943e-04  6.4188633850630246e-04  4.2811049123879432e-04  2.8667276300515002e-04  2.7723160334477341e-04  2.9476480904905549e-04  3.2887290360267518e-04  3.7805888662051167e-04  4.4822025447021529e-04  5.3459365465940230e-04  6.1919902079857810e-04  7.7423379197349906e-03  3.5227093795348772e-03  1.8687303579090382e-03  1.1626860909403223e-03  9.0102569996206884e-04  8.7795328523913418e-04  9.8890149092718230e-04  1.1515039317353554e-03  1.2405339378897041e-03  1.1704581267024524e-03  9.9957549629996461e-04  7.9619884427405065e-04  6.1372292143000308e-04  4.9652332555428233e-04  4.5322772792666621e-04  4.7718102860757141e-04  4.8137811416952249e-04  3.8347534315387634e-04  2.1692449279624439e-04  2.4513775264308866e-05  -1.6871182850489746e-04  -3.3355962024958437e-04  -4.6791473363537418e-04  -5.2689785938709384e-04  -4.5986749666718804e-04  -3.7984655843836237e-04  -3.2769746562227902e-04  -3.0748903514946974e-04  -3.1180042779925017e-04  -3.3091539628534491e-04  -3.6119716386401606e-04  9.0579266736229014e-01  8.3700885026536054e-01  7.5580460521646864e-01  7.5604503899419850e-01  5.8866838121663334e-01  5.8994414606345402e-01  5.9423447493795412e-01  4.6404138646666399e-01  9.1077315631254874e-01  5.9033138194998269e-01  4.6290278659571266e-01  5.2566465421772834e-01  5.2712908043563611e-01  8.9215282124744100e-01  4.6560909271037343e-01  5.9394173920962867e-01  4.6364935840347493e-01  5.9039217920327214e-01  9.1118954169256927e-01  8.9251077500582332e-01  9.8714929067569268e-01  3.4603889835967816e-01  3.3418237703077391e-01  3.4593238214854072e-01  6.2503519891622417e-01  3.3265596401005110e-01  7.8059084229928732e-01  7.8144469849216891e-01  3.0355282559884644e-01  2.6011216758905298e-01  3.3534262460840969e-01  5.6499930513426588e-01  3.5518262053428351e-01  7.2824108730302151e-01  6.3008094332932041e-01  6.1183279446875671e-01  8.0356986531786267e-01  7.8596606846332351e-01  9.2830719557722330e-01  8.5313835781220115e-01  3.0160833574814794e-01  2.5927308072049587e-01  3.3276761326675908e-01  5.6247865852389278e-01  3.5181221961182713e-01  7.2558655428019059e-01  6.2930181048589129e-01  3.0585923175408369e-01  2.9613591796723637e-01  3.0582035087753734e-01  5.6174367634785782e-01  2.9497812692279751e-01  7.0721311117688757e-01  7.0828729382006250e-01  5.8216560359176961e-01  7.6144324004571340e-01  7.6745254810574692e-01  8.8857409229239359e-01  8.4782263512875500e-01  3.3506266075655705e-01  3.5477639204085509e-01  3.0324428775695128e-01  5.6500115777482462e-01  2.6067433725408090e-01  6.3149211957868245e-01  7.2844721463391282e-01  2.6844113104656026e-01  2.6814289947915199e-01  4.9937314710630343e-01  3.3306760176743633e-01  3.5242488473627620e-01  3.0170497430022603e-01  5.6246820225162064e-01  2.5951536011551568e-01  6.2983783904436941e-01  7.2563882939689139e-01  2.6785352447968419e-01  2.6816350810587025e-01  4.9899271826680774e-01  8.0314717135367630e-01  9.2867010175399833e-01  6.1116057021673853e-01  7.8574447362215694e-01  8.5360481741155914e-01  7.6118335595770192e-01  8.8885273993599623e-01  5.8176622730372540e-01  7.6733773998981913e-01  8.4813093219228120e-01  9.7538764302460323e-01  9.7295563851056788e-01  9.5975483420429675e-01  9.3044348542505906e-01  9.4100410484673647e-01  9.5968887391043245e-01  9.7297446305803315e-01  9.3042749009515613e-01  1.8838214456086355e-01  1.8450343819505163e-01  1.9139592643455849e-01  3.4902463578853593e-01  1.9282771706098079e-01  4.7892729312184196e-01  4.6976313940014836e-01  1.9287318630040687e-01  3.5479284578719705e-01  4.9638728898183776e-01  4.9653570287848897e-01  4.7838832606185810e-01  6.1584483344933971e-01  6.1633080014115693e-01  1.9137034533299876e-01  1.8838461522517599e-01  3.4856906396584958e-01  1.8366014321563895e-01  4.6832278247912268e-01  7.1144990633107474e-01  6.9396062088921573e-01  7.1114933385088031e-01  7.8993942150182850e-01  6.9287832189568976e-01  8.5162034476118431e-01  8.5213789073714041e-01  1.5769938996343730e-01  1.4701041354737657e-01  1.6774343337820466e-01  2.9092248224798201e-01  1.7686018233382081e-01  3.9974846453265289e-01  3.6641712427680967e-01  1.8449893414534410e-01  3.2820039601300904e-01  4.6602411421535239e-01  4.4173457534461535e-01  4.7252565797530699e-01  5.8870110884906834e-01  5.2340852227676415e-01  1.9102369457858456e-01  1.9587681392795267e-01  3.5454151981162813e-01  1.9893308698725509e-01  4.8744304396156818e-01  6.1084926945390539e-01  5.5202168586371125e-01  6.5180690191271651e-01  6.8821888646485896e-01  6.7458439321611774e-01  7.5511127915952658e-01  6.9808144736595434e-01  3.4945481291315417e-01  4.8533862104373815e-01  4.9138582676994430e-01  6.0571001182762052e-01  6.0807519857282910e-01  7.0982829751245746e-01  7.1598450916990075e-01  7.9977058055013950e-01  7.1219503934645489e-01  8.7058705690863003e-01  8.5677066257227419e-01  6.9843868807027187e-01  7.9738411177060942e-01  8.6814618020355694e-01  8.7437365351197649e-01  9.2197363630604046e-01  9.2456619810362339e-01  7.6216190215143564e-01  8.3293041642541632e-01  7.9908758006618241e-01  8.8695156155100530e-01  8.0940020030639970e-01  1.5704892167380852e-01  1.4650386938560286e-01  1.6694846484078893e-01  2.8943913530508486e-01  1.7578100198346699e-01  3.9792383314542390e-01  3.6534538086379398e-01  1.8324198798033314e-01  3.2597605206184516e-01  4.6320315904357962e-01  4.3940449038274693e-01  4.6919841128579487e-01  5.8551391218163618e-01  5.2155363211263484e-01  1.8942540650743472e-01  1.9384691022440098e-01  3.5161999628351259e-01  1.9580232478459883e-01  4.8375586359084338e-01  6.0899150046719663e-01  5.5097946987866819e-01  6.4913492494457858e-01  6.8650313089974413e-01  6.7113067629261125e-01  7.5373829417027349e-01  6.9765301156635384e-01  1.6741085109852874e-01  1.6393484222620178e-01  1.7004332553582965e-01  3.0973099762404227e-01  1.7133601714865482e-01  4.2492345798265024e-01  4.1762052071699751e-01  1.7136445400590586e-01  3.1462108612692358e-01  4.4235259084610928e-01  4.4245729432355468e-01  4.2451752582986857e-01  5.5262488763260997e-01  5.5312006708472472e-01  1.7016473830136675e-01  1.6767002985243903e-01  3.0950901217077548e-01  1.6412614052293098e-01  4.1611741305582639e-01  6.4131218345836083e-01  6.2414400721298569e-01  6.4096991524403513e-01  7.1654025870773164e-01  6.2281337049067598e-01  7.7867178172441720e-01  7.7930472411947449e-01  3.2944365452827917e-01  4.5104211601656446e-01  4.7330867632674212e-01  5.6034850713547180e-01  5.9229018356754037e-01  6.5697292121104789e-01  6.7828374968239791e-01  7.7041013845359851e-01  6.8782956672002571e-01  8.3989863080051741e-01  8.3633020976287487e-01  6.8547582771349458e-01  7.4067405883369453e-01  8.1127184698175625e-01  8.3153238599620560e-01  8.6881046740941070e-01  8.9635313213041845e-01  7.5256221826618841e-01  8.2077999386159284e-01  7.9327569034018808e-01  8.7596107633104803e-01  8.0778786906859057e-01  1.9575226251700931e-01  1.9887597141351734e-01  1.9086090846308923e-01  3.5415409420676569e-01  1.8436306429473284e-01  4.7211855078957571e-01  4.8714281066201653e-01  1.7662642781011823e-01  3.2792759287129664e-01  4.4162495559358383e-01  4.6577379664530938e-01  3.9993854881438090e-01  5.2384298762299242e-01  5.8845068443910453e-01  1.6742142035312377e-01  1.5691751115005104e-01  2.9071708769599386e-01  1.4540033439135577e-01  3.6776971711039691e-01  6.5183277875571488e-01  6.7451255094659934e-01  6.1134892207692604e-01  6.8867372245120928e-01  5.5360132531323070e-01  6.9904160531763515e-01  7.5567202017426638e-01  1.4837846564303744e-01  1.5049593309028386e-01  2.7327788917591539e-01  1.5150630595080958e-01  3.7351983897602198e-01  1.5148846521086962e-01  2.7701784643523480e-01  3.9042060537880019e-01  3.9074842788152014e-01  3.7248892861614408e-01  4.8998057783365440e-01  4.9111568820849544e-01  1.5051550590060206e-01  1.4862871512479819e-01  2.7263727859726250e-01  5.7024737669471037e-01  5.6947155933657834e-01  6.3914579220953593e-01  1.9469753533331313e-01  1.9798289704165581e-01  1.8982764273622277e-01  3.5196369786183446e-01  1.8344512904407562e-01  4.6921040313431034e-01  4.8393044299605320e-01  1.7576763281206531e-01  3.2615761846349561e-01  4.3947368319798752e-01  4.6325237050587853e-01  3.9810400364914045e-01  5.2172324749713883e-01  5.8542502428720666e-01  1.6669427079147681e-01  1.5632403022360433e-01  2.8946655576988206e-01  1.4510429178668696e-01  3.6606065946240424e-01  6.4905000254051659e-01  6.7110702048542059e-01  6.0910481646990078e-01  6.8654480363855264e-01  5.5167506552827106e-01  6.9793143624673437e-01  7.5389782070887135e-01  1.4795312471521238e-01  1.5011010515096479e-01  2.7239654816082254e-01  1.5119459184555106e-01  3.7240876547106594e-01  1.5127159854694372e-01  2.7672064566494875e-01  3.9033962295231373e-01  3.9015482301242044e-01  3.7295373269829329e-01  4.9033787323614719e-01  4.8999018634681252e-01  1.5042925836507021e-01  1.4874456168462066e-01  2.7302093530041732e-01  5.6936430297615026e-01  5.6954701002996244e-01  6.3875864246252234e-01  8.6791833386708062e-01  9.2232206233325209e-01  7.9686341061316368e-01  8.7421240064404360e-01  7.0913232765555823e-01  8.7049146752314788e-01  9.2494941570401690e-01  6.0487342972915026e-01  7.1541934872116608e-01  7.1174064085565103e-01  7.9944083353755713e-01  6.0752053142480034e-01  6.9809790370584213e-01  8.5675702861792313e-01  4.8442458257323995e-01  3.4851524880949358e-01  4.9070447199879197e-01  8.3301928886490939e-01  8.8740377053076880e-01  7.6207059024224511e-01  7.9930313308039569e-01  8.0980959561428945e-01  8.1105320171846573e-01  8.6898203483773062e-01  7.4016114050978299e-01  8.3149200150410696e-01  6.5630680106642025e-01  8.3994271154819999e-01  8.9669007015373403e-01  5.5963351652461146e-01  6.7790113292622856e-01  6.8757039264886344e-01  7.7024635177063894e-01  5.9203007753712500e-01  6.8530108269528067e-01  8.3639664182563023e-01  4.5044826935016419e-01  3.2940429624355877e-01  4.7306723357887515e-01  8.2085770371546296e-01  8.7632199088299934e-01  7.5246241220745724e-01  7.9334203487730048e-01  8.0794982737542964e-01  9.4781991933531862e-01  9.5783275791207523e-01  9.7918157025337127e-01  9.5786006378866606e-01  9.8850447895543037e-01  9.8605787754457608e-01  9.4785460001828992e-01  9.7845829005240570e-01  9.7358635576425456e-01  9.5110519910642133e-01  9.5670353844298373e-01  9.3107681524224828e-01  9.1865357131536440e-01  9.2781851486407663e-01  9.7131324648912154e-01  9.5638806959947553e-01  9.1987258954365558e-01  9.3148446751608349e-01  8.9624478967876298e-01  8.9777862827797861e-01  8.9422003381914117e-01  8.5778744967641785e-01  9.1978053583539943e-01  9.5634011330468405e-01  9.3134839731571606e-01  9.7843437829560731e-01  9.3092258393955130e-01  9.8605024262449492e-01  9.7356202332403174e-01  9.5671584221680872e-01  9.5104349339668071e-01  9.4797832436405582e-01  9.2795239261191431e-01  9.1850387442394477e-01  9.7919824789044085e-01  9.5791890366452104e-01  9.5796960702732770e-01  8.9412145511451269e-01  8.9790097211142328e-01  8.5783862920798282e-01  1.1011338517661505e-03  5.1754292953369086e-04  3.8723246419213628e-04  9.7563501057910756e-04  2.6950366278121604e-03  1.8761791024372490e-03  1.1912324564238913e-03  2.0039425420094225e-03  8.3135085802408452e-04  -7.1294990378421886e-06  2.5873925056213963e-05  5.5019684623537363e-04  1.1191023223208714e-05  5.0963502028103741e-04  1.3625137856990799e-03  2.5446327981196079e-04  1.3307876786747934e-03  1.3940931386916645e-04  1.0229340490560239e-03  -2.7188752554053350e-05  7.8227670698127749e-04  4.1475888978087679e-04  1.6852122155755918e-03  7.3502951687481454e-04  1.1940702117179333e-04  6.9387730521149700e-03  6.1340320647297599e-03  2.2489339839092742e-03  5.7918217225997101e-03  1.4663221735686891e-03  1.1794162992916140e-03  4.6314462316086316e-03  1.4375817368095375e-03  1.2673043637701619e-03  1.3094740143336230e-03  1.9621294952302392e-03  1.0663271176807744e-03  5.5434597119574189e-03  1.9209048869318721e-03  5.5223558920152512e-03  1.1054660055529002e-03  5.5737467778129253e-03  1.3388417035128655e-03  8.5202468677300278e-04  7.4689286972103540e-04  8.4549480018209769e-04  9.1167617592206071e-04  -1.6962542298871116e-04  -1.3303724628303327e-04  6.8779770280613584e-06  -9.6110928445253743e-05  1.7450872925807675e-04  1.8962711093798440e-04  -6.9181357746674028e-05  6.0053153960111549e-04  2.8149926217409433e-04  2.3231049568457808e-04  2.5903611128834024e-05  4.6700576869974946e-04  -7.0097397184434949e-05  3.7739208268799524e-05  -1.1082912624935128e-04  2.0148375853612285e-04  -1.8988507904912298e-04  1.6113550552352517e-05  2.3616562300853166e-04  2.9571796349512860e-04  4.3750880681669844e-04  6.4997532452429948e-04  1.3274962928736486e-03  1.0980087562181883e-03  8.6004604871911148e-04  5.0019600630460230e-04  1.3723385665663410e-03  5.9685784926867915e-04  6.5868478666669900e-05  1.1559979230763707e-03  1.0794479814163818e-03  1.3345739593807885e-03  1.0653755338444070e-03  1.4866480353089833e-03  2.3913402326126281e-05  3.3495009155620563e-04  6.1525656642993237e-04  7.8194758140631856e-04  3.0785970550274971e-04  9.1464817197782022e-04  9.4404121029276916e-04  3.2729172264761043e-04  8.0914631719239058e-05  -6.0804233654533034e-06  -1.1273129548233425e-06  5.3971812507164111e-05  8.2269887616613949e-04  9.0893903279597144e-04  7.1832581056282185e-04  8.3342907726497752e-04  5.9701672115388153e-04  2.5811910807649102e-04  7.6590368561187301e-04  1.1066545496873574e-03  1.4658600830334450e-03  7.0527534607675547e-04  1.5458285005822425e-03  1.8149984102833543e-03  1.4963128428932713e-03  1.2389999887365980e-03  1.4676601734430969e-03  8.6249161660528068e-04  7.4332708547814453e-04  4.3488932092537464e-04  3.6957145275933546e-04  6.4611874257991574e-04  2.1283124945014912e-04  1.4535284642591860e-04  7.5071891902846148e-05  -1.3407211452189848e-05  1.4158112475274410e-04  6.9547629441940346e-04  6.2677704605703397e-04  7.4411192391982193e-04  1.2669266572309539e-02  1.2232113825825603e-02  6.3656862415196174e-03  1.2120896980376751e-02  4.1987828648815213e-03  3.7340324049165803e-03  1.2064689940562569e-02  2.4262860179238041e-03  3.5310966892192364e-03  3.3535863005891803e-03  5.9969593839251092e-03  2.0683980073079389e-03  3.1157641089177312e-03  1.2026913374346151e-02  1.9276536400639282e-03  1.7248950350299116e-03  1.3127056642826568e-03  1.5612377118823205e-03  1.1878129260064864e-03  1.0576055750221227e-03  1.4126319230647934e-03  1.1900814420564452e-02  5.4148280407033166e-03  1.1496915420823749e-02  2.7882798883133637e-03  9.8234048444842629e-03  1.5980398595453289e-03  1.4020714002985621e-03  1.2943679296250120e-03  1.3082067588683708e-03  1.2985100589902722e-03  1.2140868524530919e-03  1.3761766773318078e-03  1.1712911195306400e-03  1.2641654842482917e-03  1.5515083743860565e-03  1.4313616798841567e