<?xml version="1.0"?>
<VTKFile type="UnstructuredGrid"  version="0.1"  >
<UnstructuredGrid>
<Piece  NumberOfPoints="283" NumberOfCells="992">
<Points>
<DataArray  type="Float64"  NumberOfComponents="3"  format="ascii">0 1 0  0 -1 0  0 0 1  0 0 -1  4 0 1  4 -1 0  4 0 -1  4 1 0  0 0.923879532179443 0.3826834331662315  0 0.707106779577703 0.7071067827953921  0 0.3826834315824063 0.9238795328354849  0 -0.3826834331662315 0.923879532179443  0 -0.7071067827953921 0.707106779577703  0 -0.9238795328354849 0.3826834315824063  0 -0.923879532179443 -0.3826834331662315  0 -0.707106779577703 -0.7071067827953921  0 -0.3826834315824063 -0.9238795328354849  0 0.3826834331662315 -0.923879532179443  0 0.7071067827953921 -0.707106779577703  0 0.9238795328354849 -0.3826834315824063  4 -0.3826834331662315 0.923879532179443  4 -0.7071067827953921 0.707106779577703  4 -0.9238795328354849 0.3826834315824063  4 -0.923879532179443 -0.3826834331662315  4 -0.707106779577703 -0.7071067827953921  4 -0.3826834315824063 -0.9238795328354849  4 0.3826834331662315 -0.923879532179443  4 0.7071067827953921 -0.707106779577703  4 0.9238795328354849 -0.3826834315824063  4 0.923879532179443 0.3826834331662315  4 0.707106779577703 0.7071067827953921  4 0.3826834315824063 0.9238795328354849  0.4999999999991029 0 1  0.9999999999976482 0 1  1.499999999996212 0 1  1.999999999994776 0 1  2.499999999996071 0 1  2.999999999997367 0 1  3.499999999998683 0 1  0.4999999999991029 -1 0  0.9999999999976482 -1 0  1.499999999996212 -1 0  1.999999999994776 -1 0  2.499999999996071 -1 0  2.999999999997367 -1 0  3.499999999998683 -1 0  0.4999999999991029 0 -1  0.9999999999976482 0 -1  1.499999999996212 0 -1  1.999999999994776 0 -1  2.499999999996071 0 -1  2.999999999997367 0 -1  3.499999999998683 0 -1  0.4999999999991029 1 0  0.9999999999976482 1 0  1.499999999996212 1 0  1.999999999994776 1 0  2.499999999996071 1 0  2.999999999997367 1 0  3.499999999998683 1 0  0 0.2687658172239241 0.1113264469546516  0 -0.3632776934580825 -0.1504745480221339  0 0.1820395197732083 -0.4510798723263696  0 -0.1902402587217505 0.4476830150214721  0 0.4879362984008135 0.4092166148750218  0 0.6343829086119621 0.0556632234773258  0 0.5910197598866042 -0.2255399361631848  0 0.4445731512843002 -0.5790933259520363  0 0.2254026684985662 -0.169876712685859  0 -0.5951201293608752 0.2238415075107361  0 -0.4486735207585713 0.5773948972995875  0 -0.5351922365178927 -0.428790665408763  0 -0.6816388467290413 -0.07523727401106695  0 -0.2767589760899165 0.1486042334996691  0 -0.09512012936087527 0.7238415075107361  0 0.2584332604279762 0.5773948989084321  0 0.09101975988660417 -0.7255399361631848  0 -0.2625336299022473 -0.5790933275608808  0 0.03926277925108676 0.2795047309880618  0 -0.09061908684243711 -0.3007772101742517  0 -0.04725593811707923 -0.01957405053374114  1.518966646425677 -0.7148990903108838 0.6992276386647419  2.482205333411837 -0.6987038418337225 0.7154110296932782  3.244324580033718 -0.7493596623679175 0.6621631947004006  0.7556754217642816 -0.6621631932530087 0.7493596636468891  0.3778377108821408 -0.9116367678743256 0.4109968411796531  0.3778377108821408 -0.6849608699610427 0.7285798560365305  0.877837710880965 -0.9116367678743256 0.4109968411796531  0.3778377108821408 -0.3540058866663175 0.9352431941509087  0.8778377108809655 -0.3540058866663175 0.9352431941509087  3.622162290016859 -0.4109968394715655 0.9116367686443895  3.622162290016859 -0.7285798569284849 0.6849608690122877  3.122162290015542 -0.4109968394715655 0.9116367686443895  3.622162290016859 -0.9352431936044623 0.3540058881099666  3.122162290015542 -0.9352431936044623 0.3540058881099666  1.259483323211666 -0.3877965700001217 0.9217449865858456  1.75948332321023 -0.3877965700001217 0.9217449865858456  1.13732103409498 -0.6889872554463009 0.724773455524258  2.241102666703306 -0.3772194123706772 0.9261239198566901  2.741102666704602 -0.3772194123706772 0.9261239198566901  2.000585989918757 -0.7068477827492673 0.7073656847928408  2.863264956722777 -0.7245210908089098 0.6892526307335123  1.759483323210227 -0.9259857154165186 0.3775585449232451  1.259483323211663 -0.9259857154165186 0.3775585449232451  2.741102666704602 -0.9216029084789502 0.3881340993563173  2.241102666703306 -0.9216029084789502 0.3881340993563173  2.481033354225907 -0.7148990938406107 -0.6992276350559049  1.517794667296272 -0.6987038453743907 -0.7154110262352962  3.244324580033718 -0.6621631947004006 -0.7493596623679175  0.7556754217642816 -0.7493596636468891 -0.6621631932530087  0.3778377108821408 -0.7285798560365305 -0.6849608699610427  0.3778377108821408 -0.9352431941509087 -0.3540058866663175  0.8778377108809655 -0.9352431941509087 -0.3540058866663175  0.3778377108821408 -0.4109968411796531 -0.9116367678743256  0.877837710880965 -0.4109968411796531 -0.9116367678743256  3.622162290016859 -0.9116367686443895 -0.4109968394715655  3.622162290016859 -0.6849608690122877 -0.7285798569284849  3.122162290015542 -0.9116367686443895 -0.4109968394715655  3.622162290016859 -0.3540058881099666 -0.9352431936044623  3.122162290015542 -0.3540058881099666 -0.9352431936044623  1.25889733364696 -0.9216029094394155 -0.3881340970757458  1.758897333645524 -0.9216029094394155 -0.3881340970757458  1.136735044530277 -0.7245210931893551 -0.6892526282312617  2.240516677110342 -0.9259857169184097 -0.3775585412397642  2.740516677111636 -0.9259857169184097 -0.3775585412397642  1.999414010761089 -0.70684778628559 -0.7073656812591073  2.862678967129813 -0.6889872579920328 -0.7247734531042235  1.758897333645524 -0.3772194148613824 -0.9261239188422012  1.25889733364696 -0.3772194148613824 -0.9261239188422012  2.740516677111636 -0.3877965737357736 -0.921744985014182  2.240516677110342 -0.3877965737357736 -0.921744985014182  1.518966646425677 0.7148990903108838 -0.6992276386647419  2.482205333411837 0.6987038418337225 -0.7154110296932782  3.244324580033718 0.7493596623679175 -0.6621631947004006  0.7556754217642816 0.6621631932530087 -0.7493596636468891  0.3778377108821408 0.9116367678743256 -0.4109968411796531  0.3778377108821408 0.6849608699610427 -0.7285798560365305  0.877837710880965 0.9116367678743256 -0.4109968411796531  0.3778377108821408 0.3540058866663175 -0.9352431941509087  0.8778377108809655 0.3540058866663175 -0.9352431941509087  3.622162290016859 0.4109968394715655 -0.9116367686443895  3.622162290016859 0.7285798569284849 -0.6849608690122877  3.122162290015542 0.4109968394715655 -0.9116367686443895  3.622162290016859 0.9352431936044623 -0.3540058881099666  3.122162290015542 0.9352431936044623 -0.3540058881099666  1.259483323211666 0.3877965700001217 -0.9217449865858456  1.75948332321023 0.3877965700001217 -0.9217449865858456  1.13732103409498 0.6889872554463009 -0.724773455524258  2.241102666703306 0.3772194123706772 -0.9261239198566901  2.741102666704602 0.3772194123706772 -0.9261239198566901  2.000585989918757 0.7068477827492673 -0.7073656847928408  2.863264956722777 0.7245210908089098 -0.6892526307335123  1.759483323210227 0.9259857154165186 -0.3775585449232451  1.259483323211663 0.9259857154165186 -0.3775585449232451  2.741102666704602 0.9216029084789502 -0.3881340993563173  2.241102666703306 0.9216029084789502 -0.3881340993563173  1.519294690259408 0.7169910765607017 0.6970823453024225  2.482046457574951 0.7166228761591933 0.6974608615293947  3.244324580033718 0.6621631947004006 0.7493596623679175  0.755675423572142 0.6621631928835726 0.749359663973337  0.377837711786071 0.6849608681283516 0.7285798577595012  0.377837711786071 0.9116367678202693 0.410996841299556  0.877837711784895 0.9116367678202693 0.410996841299556  0.377837711786071 0.3540058869781399 0.9352431940328785  0.8778377117848951 0.3540058869781399 0.9352431940328785  3.622162290016859 0.6849608690122877 0.7285798569284849  3.622162290016859 0.3540058881099666 0.9352431936044623  3.122162290015542 0.3540058881099666 0.9352431936044623  3.622162290016859 0.9116367686443895 0.4109968394715655  3.122162290015542 0.9116367686443895 0.4109968394715655  1.759647345127092 0.389177116104521 0.9211629455750856  1.259647345128528 0.389177116104521 0.9211629455750856  1.137485056915775 0.6900723543538377 0.7237403856056061  2.741023228786159 0.3889338880006508 0.9212656678530342  2.241023228784864 0.3889338880006508 0.9212656678530342  2.00067057391718 0.7168070013447998 0.6972716277198407  2.863185518804334 0.6898812424512113 0.7239225589204781  1.259647345128528 0.9265503435646691 0.3761707867979563  1.759647345127092 0.9265503435646691 0.3761707867979563  2.241023228784863 0.9264509906517433 0.3764154113747249  2.741023228786159 0.9264509906517433 0.3764154113747249  4 -0.1113264469546516 0.2687658172239241  4 0.1504745480221339 -0.3632776934580825  4 0.4510798723263696 0.1820395197732083  4 -0.4476830150214721 -0.1902402587217505  4 -0.4092166148750218 0.4879362984008135  4 -0.0556632234773258 0.6343829086119621  4 0.2255399361631848 0.5910197598866042  4 0.5790933259520363 0.4445731512843002  4 0.169876712685859 0.2254026684985662  4 -0.7238415075107361 -0.09512012936087527  4 -0.5773948989084321 0.2584332604279762  4 -0.5773948972995875 -0.4486735207585713  4 -0.2238415075107361 -0.5951201293608752  4 0.428790665408763 -0.5351922365178927  4 0.07523727401106695 -0.6816388467290413  4 -0.1486042334996691 -0.2767589760899165  4 0.7255399361631848 0.09101975988660417  4 0.5790933275608808 -0.2625336299022473  4 -0.2795047309880618 0.03926277925108676  4 0.3007772101742517 -0.09061908684243711  4 0.01957405053374114 -0.04725593811707923  3.101494076711887 0.02671064174872906 -0.04429986523720686  0.8975502873196286 -0.04525550120518307 -0.02440353244157281  1.901111606603393 0 0  2.791770267143419 0.3716667589539612 0.3265804981460939  3.050747038354627 0.01335532087436453 0.4778500673813966  2.45055580330038 0 0.5  2.50130284165764 0.01335532087436453 -0.02214993261860343  2.191579032089172 0.3583114380795966 0.3487304307646973  2.791849705061862 -0.3359966000424967 0.3355555822280357  2.191658470007615 -0.349351920916
[...]
<PointData  Vectors="U"> 
<DataArray  type="Float64"  Name="U"  NumberOfComponents="3" format="ascii">4.2451586984158624e-01 -5.9922362011723572e-03 -4.9833403277207197e-04  4.2596768369924004e-01 6.7244992401412551e-03 2.2884197252039473e-04  4.2726677191510831e-01 8.1097091383293347e-05 -5.6172517216544213e-03  4.2683182289281690e-01 3.0105003809650075e-04 5.2163663588086018e-03  5.4344253335202507e-02 -1.4167048437701394e-03 4.3547271393012718e-02  3.5806483433365635e-02 -4.9904855027611494e-02 -5.4118334157999843e-03  5.3186859181082798e-02 1.2624599115760391e-03 -4.3614885241939322e-02  -2.4617625568167746e-02 5.0508479030359273e-02 5.3525308832686374e-03  4.2309687675410651e-01 -6.6926690712657642e-03 -3.7905631373860737e-03  4.2375793049345245e-01 -4.9886297270169072e-03 -5.3623012575113255e-03  4.2329183513598917e-01 -2.9748510103496518e-03 -6.7868269737621206e-03  4.2432248539859996e-01 2.7232435537320183e-03 -6.0517343600743024e-03  4.2509016831057239e-01 4.6888740450765068e-03 -4.0588660950763482e-03  4.2592412273993691e-01 7.6421570644368388e-03 -2.7644127192205099e-03  4.2331024108774112e-01 7.0878645655463790e-03 3.1194389710033649e-03  4.2317259552627162e-01 5.2762803466785465e-03 4.8352716647980928e-03  4.2309222562580889e-01 3.6427876442870172e-03 6.4286378697415271e-03  4.2354567358723794e-01 -2.4714984434672941e-03 5.9622627618952954e-03  4.2423125332387823e-01 -4.2612933830633798e-03 3.9663533049595894e-03  4.2243906449045310e-01 -6.5476010125372335e-03 2.5319202103819272e-03  1.2737515082534245e-01 -2.8234485367586919e-02 3.3707072763596690e-02  2.0924727713349936e-01 -3.5430121704555777e-02 3.1112335680448685e-02  1.0230577559413224e-01 -3.4979243255514776e-02 2.1103805050498831e-02  1.0551678945246906e-01 -3.8381020170712835e-02 -3.6210869656218787e-02  1.8481834102508046e-01 -4.4122551910359964e-02 -4.8163575194162533e-02  1.3276981969994700e-01 -2.9534637726945104e-02 -3.6730483519378992e-02  1.1981237367983208e-01 3.0278705944570491e-02 -3.4037011540813941e-02  2.0615282200391855e-01 3.5543984269529982e-02 -3.0568130921634840e-02  1.0069577585464137e-01 3.5342167710732890e-02 -2.1308285022442679e-02  8.2257773775561399e-02 3.4679113306123943e-02 3.0477310225119885e-02  1.9081434620984872e-01 4.3865766375766529e-02 4.6198200726802516e-02  9.5816156349106604e-02 2.7149038813716563e-02 3.2004088646717978e-02  1.0764663448186841e-01 6.1147227169494230e-03 -1.6187955618487368e-01  2.6964074291125701e-02 1.3052118617770470e-03 -1.2099358663598413e-01  1.0426976831390105e-02 9.3471478231070467e-05 -7.0388881818166590e-02  4.8215408476172443e-02 -2.8087136256992886e-04 -4.6280107458338514e-02  -3.5548382778717275e-02 3.4687291537075253e-04 -1.8844335845084593e-02  1.2458326130124559e-02 -7.2155324704517316e-04 1.2623753107491994e-02  2.9691424102776743e-02 -4.6377753919338155e-03 4.1722602855160135e-02  6.7030784414200101e-02 1.4747304858805727e-01 -5.8600825594839296e-03  2.1648487779503709e-02 1.1937247083365789e-01 -2.3723300441212073e-03  -2.7410450247196332e-02 6.6769946052940649e-02 -6.7498858723292979e-03  4.3885159641484650e-02 4.7120464250123888e-02 -1.5228928555848021e-04  -3.5498447173402892e-02 1.8976520168310265e-02 6.3729937292706013e-04  1.4488668376182600e-02 -1.1733682810788477e-02 -7.4652479475756004e-04  5.4147689755771220e-03 -4.6384559780208424e-02 -6.2440731324736043e-03  4.1276720096680639e-02 1.8508047188831506e-02 1.4161691749242158e-01  1.4391584540138929e-02 2.6795703443445360e-03 1.1918382372373799e-01  -3.2196485624044736e-02 -8.2115692973273487e-03 6.6302965969743013e-02  1.5030938889225798e-02 -9.0665551405714884e-05 3.9575220135583435e-02  -3.3551301238711494e-02 -1.2175213728964438e-03 6.8699590618237407e-03  3.1233770056146203e-02 8.3752737117793357e-04 -1.9916207021360110e-02  2.7742221652179412e-02 1.7705205564286753e-03 -3.7528141897065048e-02  7.7173513415392192e-02 -1.5381612530505337e-01 -4.2667091357559764e-03  1.6866917151902531e-02 -1.1727596437428255e-01 -3.1799891832532854e-04  -2.9255558702639389e-02 -7.0552056126657894e-02 8.8016372589237724e-03  1.9043910639033049e-02 -4.0774547694548954e-02 7.7992876640759325e-04  -2.2174158102384833e-02 -7.7127047406890985e-03 -5.2836495284089974e-04  3.1526763851936070e-02 1.9682238465322483e-02 8.6596055110293947e-04  3.4017434101168531e-02 4.0078434073179674e-02 1.4987750365133418e-03  5.1246369024506522e-01 1.2231155177141364e-03 1.8492461989850595e-04  4.9838211316195502e-01 -6.8750732411188053e-04 -5.5091393257683324e-04  4.8416384380931410e-01 7.7770431726268069e-04 -1.2724575898754526e-03  4.8430176399205260e-01 -3.3501253502994877e-04 1.0577420221089121e-03  4.5898408795061046e-01 -1.4564460643680876e-04 -6.5351831603930059e-04  4.6127756226472250e-01 1.6477655976403664e-05 -2.7892404891602694e-04  4.6052314672810624e-01 4.5565112478518333e-04 -5.6148552052843971e-04  4.4601384781634357e-01 -6.2433212360575336e-04 8.4093928338193832e-04  5.1283874968738485e-01 1.2611103943394820e-03 -1.0220841348035326e-03  4.5891554559549474e-01 -1.1771351327309944e-04 3.8325823777773731e-04  4.4633703077595022e-01 1.0963825130033762e-03 -8.9470913180717286e-04  4.5140429134284948e-01 1.2918165197991762e-03 5.8694659438580411e-04  4.5393868907801721e-01 5.4615372550984465e-04 2.1318666160311409e-04  5.1054117919316633e-01 -3.4205270037826127e-04 4.1451879378126875e-04  4.4898454484633199e-01 7.1684222732350182e-06 -5.9802142743996148e-04  4.6030707152815176e-01 -1.0798174288291634e-04 -2.6516759467046474e-04  4.4771065091691742e-01 2.6755903060050521e-04 5.2852744403588390e-04  4.5960538493630304e-01 7.2648073689417073e-04 -7.3042220831459858e-05  5.1550778323394508e-01 2.2154600972801314e-04 9.6612312503126588e-04  5.1099692720599865e-01 2.1038049541460718e-04 -1.3339004551041818e-03  5.2946081199020090e-01 1.1920117326106042e-04 -2.8000761010243513e-04  1.8625893923605124e-02 5.7406692790416387e-02 -5.6426180694537746e-02  4.0609442034579291e-04 1.0576145165225382e-02 -1.0485289887982460e-02  6.1194517793253293e-02 -1.9184596900143215e-02 1.8771943562337766e-02  2.4801959838664407e-03 1.0119002434358142e-01 -8.9365277051909414e-02  -2.6445869514316706e-01 1.5659094292328826e-01 -7.3472723194512077e-02  -2.5746832669099673e-01 2.7292295119825305e-01 -2.8052457238461459e-01  -6.7958564175155764e-02 1.2777032536382943e-01 -2.7153090535122493e-02  -1.9210667645463145e-01 1.1728928533996867e-01 -2.8462766861527872e-01  -4.8763816347858563e-02 5.0052828202329140e-02 -1.4607138951159523e-01  8.5359427247379369e-02 -1.3360249322219421e-02 3.4874004673033629e-02  1.3288212333432003e-01 -2.8631181428945853e-02 2.6351963438507646e-02  1.9853088858917418e-02 -1.0042397747897301e-02 2.3835199619266483e-02  5.5549117097981743e-02 -3.8286140704541616e-02 8.9213805560266705e-03  9.7372295006537390e-03 -1.4894947640121609e-02 5.1501289962157986e-03  -1.7742959468306099e-01 2.0608239582889012e-02 -4.6545761296424765e-02  2.1381512956174784e-02 1.9470948729076922e-02 -4.4259261964273038e-02  -6.4124392660713556e-02 6.6846647164026302e-02 -7.9852627933128625e-02  2.6304802424244079e-02 1.1401074660706566e-02 -3.1453641173706283e-02  -2.2523894003490613e-01 2.2745489029372028e-03 -5.7085015732959198e-03  3.7003860101555333e-02 3.7311749942367557e-02 -3.4718849621554311e-02  -7.5393158175435820e-02 -6.5050698725272723e-03 7.3086964011335595e-03  3.9015896606882677e-02 5.4027411813115281e-02 -2.2418391730081855e-02  -1.4548041325436037e-01 5.7142538902305161e-02 -2.2804723495288472e-02  -1.4217402741672911e-02 6.4811171877175427e-03 -4.4627603237791290e-03  4.2683737568396399e-02 2.8961018836504367e-02 -1.1100326079485462e-02  1.6357119342287080e-02 1.4598745036775593e-02 1.1547439476691393e-02  2.1164386631209616e-02 5.6494274084823604e-02 5.5075146958582157e-02  4.8421409625409487e-02 -1.9592681677158070e-02 -1.9808657639749802e-02  2.3088213645521181e-02 9.2778352340240719e-02 1.0761728328814173e-01  -1.8669999118533298e-01 2.0424218780098308e-01 2.0205206522020130e-01  -1.7249073048400657e-01 2.5868232186901219e-01 1.0917224315698866e-01  -7.3026177666767653e-02 1.4475268987884804e-01 4.4902560273350593e-02  -1.5768327841997878e-01 8.7524447719490167e-02 2.5617732620143857e-01  -1.1393723343975051e-01 2.5900749787461031e-02 8.0833112793283757e-02  6.5461803256749038e-02 -3.9008555920812205e-02 -1.4603363869784452e-02  1.1267191239913034e-01 -3.6042653750906886e-02 -3.4499007135387207e-02  2.7319895542004823e-02 -2.4420677289534419e-02 -1.0005089821599438e-02  5.1824009090749940e-02 -1.2204449602681832e-02 -3.0740351653221570e-02  3.2989701569515036e-02 -5.6235521881597816e-03 -2.0212292167604364e-02  -1.6356234158876226e-01 5.0182903438121304e-02 1.9479690703179658e-02  1.9856088571417574e-02 4.4182544683486119e-02 1.9225165140795919e-02  -6.3142374403044890e-02 8.1335926050338389e-02 6.2788443819359122e-02  2.9027701447298163e-02 3.1543206931265826e-02 1.1513054372966916e-02  -1.9637527611928757e-01 5.7819590013077097e-03 3.3304815476770423e-03  2.6905511626027973e-02 3.6260429600224832e-02 3.5567883356695251e-02  -5.8673488655551588e-02 -5.9829144452723864e-03 -6.4612010479968640e-03  1.0396015046215892e-02 1.9620328120930494e-02 4.2708828050934997e-02  -1.3805818365139885e-01 2.0011537429050659e-02 4.4516630635870073e-02  1.8628536592384420e-02 9.3450431023482476e-04 -1.4602401209319593e-03  -1.3481541801116448e-01 5.2041678767317445e-03 1.0726984379642044e-02  1.5847708275401436e-02 -5.8146387155381084e-02 5.9564972542149763e-02  1.8683588824125543e-02 -1.4333182020034583e-02 1.4645573653263608e-02  6.4218547570867923e-02 1.9895572883422013e-02 -1.9545286166575259e-02  7.4627914089465119e-03 -1.0325140736684700e-01 9.1528087024708896e-02  -1.1223562161405905e-01 -2.2403125102980620e-01 9.4127224545611995e-02  -2.7010713891118004e-01 -2.6004847043269441e-01 2.7349896655241240e-01  -9.0707710345052484e-02 -1.1734536306458118e-01 3.1232012769956578e-02  -1.9498122255947667e-01 -1.1842028519823644e-01 2.8424696438662184e-01  -4.5585402904935478e-02 -4.7326088206334965e-02 1.5133203973474987e-01  7.4589190359836854e-02 1.3291139528194442e-02 -3.6251727491392348e-02  1.3321707444527248e-01 2.8327520320204868e-02 -2.6178453651005365e-02  2.9673374859422830e-02 1.0040425796902442e-02 -2.4252038037630312e-02  5.6569669105724092e-02 4.3795929509219754e-02 -1.2428391360104105e-02  3.7458732269619197e-02 2.0344499802773322e-02 -5.6920910097337232e-03  -2.0543473078116212e-01 -1.8777807817294774e-02 5.6694913066970352e-02  -9.4421434112359212e-04 -2.2260405004056214e-02 4.5677562841114058e-02  -7.6674612654932278e-02 -6.2969484774951678e-02 8.2796978202812274e-02  -1.5678997293519795e-01 -5.7573540311493645e-03 1.3444422914432305e-02  1.4574864182401759e-02 -1.9252041327416341e-03 -2.0731193787063540e-03  1.3162656313676527e-02 -3.6062105106850477e-02 3.5751916242956198e-02  -3.8950130965769901e-02 6.4366380913027472e-03 -6.4318621778664932e-03  4.8781596991291712e-03 -4.5065748508439599e-02 2.3208791695665577e-02  -1.8425419827962866e-01 -4.8063479634976036e-02 2.0049512739304498e-02  2.2059751189131872e-02 1.0171126408361627e-03 1.1503117212958082e-03  1.8139560672044950e-02 -2.0338526886315260e-02 1.0423107076044619e-02  1.7147465731120262e-02 -5.4934922375973499e-02 -5.5746711531481322e-02  2.3691951929712067e-02 -1.1849393556679393e-02 -1.4360206233335124e-02  4.3924840585255150e-02 1.9756461136513130e-02 1.9311052683169440e-02  2.7141225404769528e-02 -9.8073896782865821e-02 -9.9905482637037940e-02  -2.0182808980681391e-01 -1.8088335317837942e-01 -1.9167467433170110e-01  -9.2350688397910871e-02 -2.2005045394652589e-01 -8.2465166997359854e-02  2.7957097635888460e-02 -1.0350679239959377e-01 -4.1070794997650206e-02  -1.5775926535740389e-01 -9.8586870056597511e-02 -2.8197241173473186e-01  -4.5815066236707683e-02 -2.9578730044716565e-02 -1.4129405744675258e-01  1.4113805931434073e-01 3.5790577303408080e-02 3.3229292419248269e-02  6.2406058524467276e-02 1.0468232464647450e-02 3.3925891119238057e-02  8.5926803684601444e-03 6.1292040746220812e-03 1.5045740647731525e-02  5.8689113025584765e-02 3.9899903498670078e-02 1.2894136484195991e-02  1.2038608836640645e-02 2.0461514163474543e-02 8.3258221227959228e-03  2.2611176586516211e-02 -1.9773129936885642e-02 -4.3850541417485095e-02  -2.0428972999673331e-01 -1.7192826435436920e-02 -4.6044613321732021e-02  -7.2663541831398532e-02 -6.2490719098396597e-02 -8.0565025174222732e-02  -7.8776806301886406e-03 -4.1301767503246697e-03 -6.2236192924149444e-03  8.1874702005952857e-02 -1.0508059842985893e-02 -2.5883362903197461e-02  2.7491049202454258e-02 -3.5480530886474813e-02 -3.6167630661429882e-02  -5.6422870640794313e-02 7.8180794347790083e-03 6.2341919730749817e-03  -1.5835071350382732e-02 -6.6983569904387641e-02 -2.6096516105898682e-02  3.2098756797228192e-02 -4.2023136796644864e-02 -2.0787769452818652e-02  -1.7660507161165914e-01 -1.2075158140640994e-02 -4.3189845063149029e-03  1.2265737199792527e-02 1.7995610751547506e-03 -1.8515545882068214e-03  1.1134594785118219e+00 -1.5386817696892707e-03 3.8258287832031723e-03  1.0422837002477847e+00 2.3446925664095675e-03 -5.5072241331906857e-03  9.5957972582630258e-01 7.1365182137959615e-03 2.8079041370370622e-03  9.5400825759825980e-01 -7.5197691813601586e-03 -3.1731575454215372e-03  7.8406808967854924e-01 -6.8232892868567707e-03 9.1815213581974420e-03  7.5106927887493058e-01 -1.0084530447871734e-03 1.2267223499859037e-02  7.8481731954599843e-01 4.1090960339559002e-03 1.0283782133869879e-02  6.4892617163275479e-01 1.0610851403402677e-02 7.2288686098387622e-03  1.1122776356806636e+00 2.1553312773035516e-03 2.9885494661299750e-03  5.9512675622596090e-01 -1.5598704187454404e-02 -1.7198364837600205e-03  7.9508216413274679e-01 -1.1345702671329894e-02 5.5092213274355872e-03  6.4389673085018706e-01 -1.1858359277098829e-02 -8.3556735713403441e-03  7.6990436030016307e-01 -3.6354096875499953e-03 -1.0477358175834839e-02  7.1154741493499674e-01 7.3372682056561112e-03 -1.0611342238174670e-02  6.6873138741327753e-01 1.4621145352164133e-03 -1.4272920996836636e-02  1.1002936216413950e+00 -2.1993628638255075e-03 -4.0309065992534532e-03  6.4181350987319363e-01 1.5125922694361471e-02 1.2003761649575576e-03  7.9257648564258143e-01 1.1274088123715775e-02 -5.6537958985106995e-03  1.1201884461582594e+00 -3.8400087127613558e-03 6.1123491609216263e-04  1.0952315457052921e+00 4.1506808847579790e-03 -1.1860595677080782e-03  1.1964760531022345e+00 3.5941992200087813e-04 -5.2027262762632809e-04  7.9542895890660725e-01 1.8397527700225215e-04 -2.7076907954098808e-04  7.4963828674184718e-01 2.4261388278419282e-03 1.3688330512382843e-03  7.7828887037212535e-01 1.9499617143609190e-05 -7.4823094677543920e-05  6.4745673642700741e-01 5.1570287472853076e-04 4.3735718793324468e-04  6.5505279650262205e-01 1.0977673778689214e-04 2.9016331964179312e-03  6.5844848644548115e-01 -8.2880595710485517e-05 -3.4520710772710517e-03  7.2410930648083038e-01 2.8911609718308695e-04 4.6812909875213610e-05  6.4440456146922953e-01 -5.8004044308578862e-03 -5.6447755595092630e-03  6.6507034172351975e-01 -4.9503696586009581e-04 4.9679203986759840e-04  6.4467389181173296e-01 4.6813052905143038e-03 -5.4382847781807714e-03  6.4806158909228451e-01 -3.0500943909396172e-03 -2.2718389993402286e-04  6.5738954813158212e-01 3.4977962310812072e-03 7.2530633502953124e-07  6.5038947438611716e-01 -4.7963045416896544e-04 -4.3990235097502838e-04  6.4335049444349002e-01 5.8828623675446778e-03 5.4036757897697185e-03  6.3884206404405930e-01 8.0591171868589755e-05 -1.0836670492820166e-02  6.3867077917251791e-01 1.0438542536200746e-02 7.9892841753139657e-05  6.3860766431849791e-01 -3.0539376053152212e-03 -1.4085517630558532e-05  6.3764802939725485e-01 -1.1314080087065193e-02 -2.5744378579166264e-04  6.2542930107256822e-01 3.5580327360918980e-05 -3.5995771735281034e-04  6.4190256049506411e-01 -5.8625060101468451e-03 6.0070678435717173e-03  6.2970723727183842e-01 3.1512549346433688e-03 -1.1315812151263017e-04  6.4101069316468440e-01 -8.9074341915439722e-05 3.3720478599148090e-03  6.4513493049355564e-01 9.5767978301738738e-05 1.0803373154489204e-02  6.2315400559155520e-01 9.3666668156434322e-05 -3.3328619854174346e-03  6.6786257224849255e-01 -1.4679281946725742e-02 -1.4779713556877017e-02  6.4504280919892842e-01 -2.4799146851225307e-02 9.6193152841460988e-04  6.5640922508671373e-01 -1.8538507939416804e-02 2.3201770694793828e-05  7.0275911673532576e-01 1.0377078095544952e-03 6.2942959238830240e-04  6.4549726067455371e-01 -1.0238568301340456e-02 -9.9365191147926524e-03  6.3591226527779598e-01 8.9914303093386466e-04 -2.5687698092149103e-02  6.5345463442271345e-01 -6.5630516517267142e-05 -2.0824193754743647e-02  6.5720925780271333e-01 -1.6310840345287292e-02 1.6495834727074055e-02  6.4610150628817165e-01 -1.0572697766485617e-02 1.0060087654314570e-02  6.5344620229304162e-01 1.7084156221645053e-02 -1.5327323232425805e-02  6.4118482872701499e-01 1.0236988610169057e-02 -1.0266371955763604e-02  6.2687821311584635e-01 1.0074664451046808e-03 2.7546067624884873e-02  6.5620643759938524e-01 -3.8418852409969999e-05 2.0046896454216978e-02  5.5874375371694596e-01 -2.6750224285849777e-02 1.8724780190344424e-02  5.3750025466498075e-01 -4.0961098812108077e-02 -2.8723389397567883e-03  6.8438707422503486e-01 -6.5366741991388314e-03 -2.2256451846975004e-03  6.3327968640431376e-01 -1.6495888082866894e-02 2.1182879056182879e-02  6.3748229651404564e-01 1.6953746066668218e-02 1.7252104553423853e-02  6.4139828722924630e-01 1.0459720655050575e-02 1.0658963650240438e-02  6.1765163888656138e-01 2.8556005764809655e-02 5.6792651611333421e-04  6.5375778848709309e-01 1.9959537139115580e-02 1.5167698616097352e-04  5.5294099548120479e-01 3.0708430690641872e-02 -1.8748007373684338e-02  5.1283271801716612e-01 4.2449527310895796e-02 4.1109269099186552e-03  6.7316934894477032e-01 1.1039236815361248e-02 5.0257334369739216e-03  6.1917198993250722e-01 1.9167170203003403e-02 -2.0771528655975646e-02  5.5553348382366141e-01 -5.1336733809913618e-04 8.9654650695375482e-03  6.2609076890217152e-01 4.2283796880721314e-03 7.8469269756689664e-03  8.7456154703930356e-01 -4.1546863827663857e-04 1.2929017148520378e-03  6.5430471869367235e-01 2.8596950016604589e-03 2.8293845950875529e-03  4.9537251582454800e-01 3.4264120708805884e-02 2.6095746385417749e-02  5.2854366355667048e-01 1.7987454072498188e-02 3.6448302415442391e-02  6.5288244273834728e-01 -3.8691625141872819e-03 1.3533024462226526e-02  6.1534068127187158e-01 2.3124294946978319e-02 1.8636513269564614e-02  5.2136231810049005e-01 -2.9210629192232732e-02 -2.7352440676793127e-02  6.3041845722966627e-01 -1.7546112054446006e-02 -2.0491283030188212e-02  5.7668444590429424e-01 -6.7898720166846005e-03 7.0531539672939458e-03  6.6168299782871109e-01 -2.8572143218347917e-03 2.5804106848054120e-03  4.6776796846579360e-01 2.9430719541728559e-02 -4.0113419414725543e-02  6.6949911814249186e-01 5.9905911318771515e-03 -1.1674274300727091e-02  4.6287646297241686e-01 -2.8889517892643268e-02 4.0611972585240089e-02  5.9087486287846813e-01 -3.9343011337852341e-03 -8.7373863533870000e-03  5.0519594105696841e-01 7.7220277860203662e-04 -9.8989945552224179e-03  8.4496093670310213e-01 1.0942804003701567e-03 -2.2847933853785696e-03  6.4110251490585179e-01 -2.7314238157549534e-03 -3.3755663738322117e-03  5.5744501748885988e-01 -9.5095522205560223e-03 4.0344304954495203e-03  8.3765032966163977e-01 -2.3367754416624975e-03 -1.2366187432765949e-03  5.2301156681941374e-01 -1.4654079321198891e-02 -3.4437687302901247e-02  5.5513691699582246e-01 9.6174350609583570e-03 -4.0010490687329286e-03  5.2302797157251835e-01 7.2601089820444054e-03 -7.9602276450402576e-03  8.3481067434887812e-01 2.8343127959250258e-03 8.0001546557440656e-04  6.2762656185033183e-01 3.3363906095981166e-03 -3.2097122836840103e-03  4.6663776861343681e-01 -8.8403643365279061e-03 -7.7582426726157949e-03  4.6690664411360466e-01 1.0280035972550727e-02 8.8421902908886185e-03  4.6432174891173061e-01 -5.3131214839554214e-0