<?xml version="1.0"?>
<VTKFile type="UnstructuredGrid"  version="0.1"  >
<UnstructuredGrid>
<Piece  NumberOfPoints="283" NumberOfCells="992">
<Points>
<DataArray  type="Float64"  NumberOfComponents="3"  format="ascii">0 1 0  0 -1 0  0 0 1  0 0 -1  4 0 1  4 -1 0  4 0 -1  4 1 0  0 0.923879532179443 0.3826834331662315  0 0.707106779577703 0.7071067827953921  0 0.3826834315824063 0.9238795328354849  0 -0.3826834331662315 0.923879532179443  0 -0.7071067827953921 0.707106779577703  0 -0.9238795328354849 0.3826834315824063  0 -0.923879532179443 -0.3826834331662315  0 -0.707106779577703 -0.7071067827953921  0 -0.3826834315824063 -0.9238795328354849  0 0.3826834331662315 -0.923879532179443  0 0.7071067827953921 -0.707106779577703  0 0.9238795328354849 -0.3826834315824063  4 -0.3826834331662315 0.923879532179443  4 -0.7071067827953921 0.707106779577703  4 -0.9238795328354849 0.3826834315824063  4 -0.923879532179443 -0.3826834331662315  4 -0.707106779577703 -0.7071067827953921  4 -0.3826834315824063 -0.9238795328354849  4 0.3826834331662315 -0.923879532179443  4 0.7071067827953921 -0.707106779577703  4 0.9238795328354849 -0.3826834315824063  4 0.923879532179443 0.3826834331662315  4 0.707106779577703 0.7071067827953921  4 0.3826834315824063 0.9238795328354849  0.4999999999991029 0 1  0.9999999999976482 0 1  1.499999999996212 0 1  1.999999999994776 0 1  2.499999999996071 0 1  2.999999999997367 0 1  3.499999999998683 0 1  0.4999999999991029 -1 0  0.9999999999976482 -1 0  1.499999999996212 -1 0  1.999999999994776 -1 0  2.499999999996071 -1 0  2.999999999997367 -1 0  3.499999999998683 -1 0  0.4999999999991029 0 -1  0.9999999999976482 0 -1  1.499999999996212 0 -1  1.999999999994776 0 -1  2.499999999996071 0 -1  2.999999999997367 0 -1  3.499999999998683 0 -1  0.4999999999991029 1 0  0.9999999999976482 1 0  1.499999999996212 1 0  1.999999999994776 1 0  2.499999999996071 1 0  2.999999999997367 1 0  3.499999999998683 1 0  0 0.2687658172239241 0.1113264469546516  0 -0.3632776934580825 -0.1504745480221339  0 0.1820395197732083 -0.4510798723263696  0 -0.1902402587217505 0.4476830150214721  0 0.4879362984008135 0.4092166148750218  0 0.6343829086119621 0.0556632234773258  0 0.5910197598866042 -0.2255399361631848  0 0.4445731512843002 -0.5790933259520363  0 0.2254026684985662 -0.169876712685859  0 -0.5951201293608752 0.2238415075107361  0 -0.4486735207585713 0.5773948972995875  0 -0.5351922365178927 -0.428790665408763  0 -0.6816388467290413 -0.07523727401106695  0 -0.2767589760899165 0.1486042334996691  0 -0.09512012936087527 0.7238415075107361  0 0.2584332604279762 0.5773948989084321  0 0.09101975988660417 -0.7255399361631848  0 -0.2625336299022473 -0.5790933275608808  0 0.03926277925108676 0.2795047309880618  0 -0.09061908684243711 -0.3007772101742517  0 -0.04725593811707923 -0.01957405053374114  1.518966646425677 -0.7148990903108838 0.6992276386647419  2.482205333411837 -0.6987038418337225 0.7154110296932782  3.244324580033718 -0.7493596623679175 0.6621631947004006  0.7556754217642816 -0.6621631932530087 0.7493596636468891  0.3778377108821408 -0.9116367678743256 0.4109968411796531  0.3778377108821408 -0.6849608699610427 0.7285798560365305  0.877837710880965 -0.9116367678743256 0.4109968411796531  0.3778377108821408 -0.3540058866663175 0.9352431941509087  0.8778377108809655 -0.3540058866663175 0.9352431941509087  3.622162290016859 -0.4109968394715655 0.9116367686443895  3.622162290016859 -0.7285798569284849 0.6849608690122877  3.122162290015542 -0.4109968394715655 0.9116367686443895  3.622162290016859 -0.9352431936044623 0.3540058881099666  3.122162290015542 -0.9352431936044623 0.3540058881099666  1.259483323211666 -0.3877965700001217 0.9217449865858456  1.75948332321023 -0.3877965700001217 0.9217449865858456  1.13732103409498 -0.6889872554463009 0.724773455524258  2.241102666703306 -0.3772194123706772 0.9261239198566901  2.741102666704602 -0.3772194123706772 0.9261239198566901  2.000585989918757 -0.7068477827492673 0.7073656847928408  2.863264956722777 -0.7245210908089098 0.6892526307335123  1.759483323210227 -0.9259857154165186 0.3775585449232451  1.259483323211663 -0.9259857154165186 0.3775585449232451  2.741102666704602 -0.9216029084789502 0.3881340993563173  2.241102666703306 -0.9216029084789502 0.3881340993563173  2.481033354225907 -0.7148990938406107 -0.6992276350559049  1.517794667296272 -0.6987038453743907 -0.7154110262352962  3.244324580033718 -0.6621631947004006 -0.7493596623679175  0.7556754217642816 -0.7493596636468891 -0.6621631932530087  0.3778377108821408 -0.7285798560365305 -0.6849608699610427  0.3778377108821408 -0.9352431941509087 -0.3540058866663175  0.8778377108809655 -0.9352431941509087 -0.3540058866663175  0.3778377108821408 -0.4109968411796531 -0.9116367678743256  0.877837710880965 -0.4109968411796531 -0.9116367678743256  3.622162290016859 -0.9116367686443895 -0.4109968394715655  3.622162290016859 -0.6849608690122877 -0.7285798569284849  3.122162290015542 -0.9116367686443895 -0.4109968394715655  3.622162290016859 -0.3540058881099666 -0.9352431936044623  3.122162290015542 -0.3540058881099666 -0.9352431936044623  1.25889733364696 -0.9216029094394155 -0.3881340970757458  1.758897333645524 -0.9216029094394155 -0.3881340970757458  1.136735044530277 -0.7245210931893551 -0.6892526282312617  2.240516677110342 -0.9259857169184097 -0.3775585412397642  2.740516677111636 -0.9259857169184097 -0.3775585412397642  1.999414010761089 -0.70684778628559 -0.7073656812591073  2.862678967129813 -0.6889872579920328 -0.7247734531042235  1.758897333645524 -0.3772194148613824 -0.9261239188422012  1.25889733364696 -0.3772194148613824 -0.9261239188422012  2.740516677111636 -0.3877965737357736 -0.921744985014182  2.240516677110342 -0.3877965737357736 -0.921744985014182  1.518966646425677 0.7148990903108838 -0.6992276386647419  2.482205333411837 0.6987038418337225 -0.7154110296932782  3.244324580033718 0.7493596623679175 -0.6621631947004006  0.7556754217642816 0.6621631932530087 -0.7493596636468891  0.3778377108821408 0.9116367678743256 -0.4109968411796531  0.3778377108821408 0.6849608699610427 -0.7285798560365305  0.877837710880965 0.9116367678743256 -0.4109968411796531  0.3778377108821408 0.3540058866663175 -0.9352431941509087  0.8778377108809655 0.3540058866663175 -0.9352431941509087  3.622162290016859 0.4109968394715655 -0.9116367686443895  3.622162290016859 0.7285798569284849 -0.6849608690122877  3.122162290015542 0.4109968394715655 -0.9116367686443895  3.622162290016859 0.9352431936044623 -0.3540058881099666  3.122162290015542 0.9352431936044623 -0.3540058881099666  1.259483323211666 0.3877965700001217 -0.9217449865858456  1.75948332321023 0.3877965700001217 -0.9217449865858456  1.13732103409498 0.6889872554463009 -0.724773455524258  2.241102666703306 0.3772194123706772 -0.9261239198566901  2.741102666704602 0.3772194123706772 -0.9261239198566901  2.000585989918757 0.7068477827492673 -0.7073656847928408  2.863264956722777 0.7245210908089098 -0.6892526307335123  1.759483323210227 0.9259857154165186 -0.3775585449232451  1.259483323211663 0.9259857154165186 -0.3775585449232451  2.741102666704602 0.9216029084789502 -0.3881340993563173  2.241102666703306 0.9216029084789502 -0.3881340993563173  1.519294690259408 0.7169910765607017 0.6970823453024225  2.482046457574951 0.7166228761591933 0.6974608615293947  3.244324580033718 0.6621631947004006 0.7493596623679175  0.755675423572142 0.6621631928835726 0.749359663973337  0.377837711786071 0.6849608681283516 0.7285798577595012  0.377837711786071 0.9116367678202693 0.410996841299556  0.877837711784895 0.9116367678202693 0.410996841299556  0.377837711786071 0.3540058869781399 0.9352431940328785  0.8778377117848951 0.3540058869781399 0.9352431940328785  3.622162290016859 0.6849608690122877 0.7285798569284849  3.622162290016859 0.3540058881099666 0.9352431936044623  3.122162290015542 0.3540058881099666 0.9352431936044623  3.622162290016859 0.9116367686443895 0.4109968394715655  3.122162290015542 0.9116367686443895 0.4109968394715655  1.759647345127092 0.389177116104521 0.9211629455750856  1.259647345128528 0.389177116104521 0.9211629455750856  1.137485056915775 0.6900723543538377 0.7237403856056061  2.741023228786159 0.3889338880006508 0.9212656678530342  2.241023228784864 0.3889338880006508 0.9212656678530342  2.00067057391718 0.7168070013447998 0.6972716277198407  2.863185518804334 0.6898812424512113 0.7239225589204781  1.259647345128528 0.9265503435646691 0.3761707867979563  1.759647345127092 0.9265503435646691 0.3761707867979563  2.241023228784863 0.9264509906517433 0.3764154113747249  2.741023228786159 0.9264509906517433 0.3764154113747249  4 -0.1113264469546516 0.2687658172239241  4 0.1504745480221339 -0.3632776934580825  4 0.4510798723263696 0.1820395197732083  4 -0.4476830150214721 -0.1902402587217505  4 -0.4092166148750218 0.4879362984008135  4 -0.0556632234773258 0.6343829086119621  4 0.2255399361631848 0.5910197598866042  4 0.5790933259520363 0.4445731512843002  4 0.169876712685859 0.2254026684985662  4 -0.7238415075107361 -0.09512012936087527  4 -0.5773948989084321 0.2584332604279762  4 -0.5773948972995875 -0.4486735207585713  4 -0.2238415075107361 -0.5951201293608752  4 0.428790665408763 -0.5351922365178927  4 0.07523727401106695 -0.6816388467290413  4 -0.1486042334996691 -0.2767589760899165  4 0.7255399361631848 0.09101975988660417  4 0.5790933275608808 -0.2625336299022473  4 -0.2795047309880618 0.03926277925108676  4 0.3007772101742517 -0.09061908684243711  4 0.01957405053374114 -0.04725593811707923  3.101494076711887 0.02671064174872906 -0.04429986523720686  0.8975502873196286 -0.04525550120518307 -0.02440353244157281  1.901111606603393 0 0  2.791770267143419 0.3716667589539612 0.3265804981460939  3.050747038354627 0.01335532087436453 0.4778500673813966  2.45055580330038 0 0.5  2.50130284165764 0.01335532087436453 -0.02214993261860343  2.191579032089172 0.3583114380795966 0.3487304307646973  2.791849705061862 -0.3359966000424967 0.3355555822280357  2.191658470007615 -0.349351920916
[...]
<PointData  Scalars="P"> 
<DataArray  type="Float64"  Name="P"  format="ascii">1.6686076326213797e+00  1.6727925394811063e+00  1.6793675090648976e+00  1.6747301421915559e+00  1.0736454120715773e+00  1.0724691558546897e+00  1.0749502031226261e+00  1.0758524569753025e+00  1.6628611611377981e+00  1.6587041315134698e+00  1.6666217234052096e+00  1.6651403063444412e+00  1.6632828160267135e+00  1.6598388501726993e+00  1.6598478566961383e+00  1.6590995878829813e+00  1.6658350091166132e+00  1.6619385594852214e+00  1.6617389734201999e+00  1.6631614755087962e+00  1.0769138398548808e+00  1.0743660111347175e+00  1.0757119673600122e+00  1.0785790083429789e+00  1.0763710430636675e+00  1.0779206961386176e+00  1.0777146688557946e+00  1.0750325485418639e+00  1.0762240405137211e+00  1.0780178922135706e+00  1.0757683509643201e+00  1.0767721376503341e+00  1.6362582247693114e+00  1.5893763320635372e+00  1.5214828371856213e+00  1.4342903358422643e+00  1.3373430840630822e+00  1.2396245128409695e+00  1.1493241460762944e+00  1.6349212500809185e+00  1.5905199268315142e+00  1.5207755354453167e+00  1.4342839732027246e+00  1.3375461452838742e+00  1.2400235836865297e+00  1.1487481465217102e+00  1.6365877480763460e+00  1.5899805034921242e+00  1.5204587547872634e+00  1.4341564115721099e+00  1.3386984391652252e+00  1.2392911446207333e+00  1.1499925881501207e+00  1.6359023783286721e+00  1.5907993147469501e+00  1.5198836993000084e+00  1.4342613462981517e+00  1.3385685937667047e+00  1.2396419385580086e+00  1.1480987102173923e+00  1.6264106493957984e+00  1.6323683212277316e+00  1.6368552982352629e+00  1.6391051842700877e+00  1.6429664510716975e+00  1.6507017351430342e+00  1.6485391633929998e+00  1.6539948364720867e+00  1.6258358477649437e+00  1.6446002163947964e+00  1.6570165810730169e+00  1.6487805316196698e+00  1.6575564999697201e+00  1.6281646932667153e+00  1.6662987883800755e+00  1.6450967309285147e+00  1.6615555362719938e+00  1.6449811656552502e+00  1.6285038134115724e+00  1.6288146178724285e+00  1.6191863343712867e+00  1.5186609778846392e+00  1.3408902024272376e+00  1.1931665572307830e+00  1.6131263126330286e+00  1.6472756714822008e+00  1.6552332089948423e+00  1.6040061252204256e+00  1.6482073020772430e+00  1.6037161504954318e+00  1.1293771790994045e+00  1.1246045258164445e+00  1.2152734034453456e+00  1.1269603238305794e+00  1.2169923501431168e+00  1.5557629956550196e+00  1.4770862162219260e+00  1.5711312468310648e+00  1.3866901124647983e+00  1.2903962301958620e+00  1.4340655691903550e+00  1.2668016472474488e+00  1.4782459669487669e+00  1.5561930858397361e+00  1.2915844338349001e+00  1.3885478372700513e+00  1.3410713433712547e+00  1.5180488938619037e+00  1.1932461046207175e+00  1.6119908163064229e+00  1.6516183278745462e+00  1.6456907340342823e+00  1.6045233893279491e+00  1.6470278164289400e+00  1.6034926069150106e+00  1.1312395257681802e+00  1.1268345459631115e+00  1.2153745859407763e+00  1.1284264063158627e+00  1.2163595655602442e+00  1.5559725493164034e+00  1.4769492137657478e+00  1.5718759758756944e+00  1.3867060650101304e+00  1.2905193269384125e+00  1.4342712886078972e+00  1.2659193016783312e+00  1.4768565646603342e+00  1.5547987046547296e+00  1.2909702444103512e+00  1.3877727873330890e+00  1.5182954366206189e+00  1.3415913400466075e+00  1.1925826062665892e+00  1.6125388951105493e+00  1.6455900577037175e+00  1.6530772125826729e+00  1.6061756681879253e+00  1.6457028731792438e+00  1.6039735125192804e+00  1.1300896309520985e+00  1.1252132670006589e+00  1.2145208494622066e+00  1.1265768527075122e+00  1.2161816314638054e+00  1.5560406308008004e+00  1.4782416033255255e+00  1.5724897966147922e+00  1.3876212158821719e+00  1.2908028735303798e+00  1.4342692486216848e+00  1.2654705116530849e+00  1.4779756780583728e+00  1.5550811585121060e+00  1.2902674457430381e+00  1.3884713402208855e+00  1.5177886956259368e+00  1.3419316574284295e+00  1.1931537528175780e+00  1.6114240187783440e+00  1.6523707732176238e+00  1.6470723309707440e+00  1.6004826492722302e+00  1.6472804857296126e+00  1.6023680250995831e+00  1.1243402567990590e+00  1.1278212953255902e+00  1.2165913709324996e+00  1.1283700860399479e+00  1.2176747021730114e+00  1.4770592217637730e+00  1.5552215498524218e+00  1.5704397302330535e+00  1.2913399079793455e+00  1.3873094126745162e+00  1.4341279087381680e+00  1.2666474660982883e+00  1.5555328697806954e+00  1.4760111698368661e+00  1.3876171524682597e+00  1.2916593795780071e+00  1.0497754848844763e+00  1.0532050163526834e+00  1.0569345428297814e+00  1.0581666126877500e+00  1.0674703250738908e+00  1.0632450964297893e+00  1.0677827329907501e+00  1.0741869413596850e+00  1.0483515138233452e+00  1.0674423675439473e+00  1.0702300718296165e+00  1.0718653234503437e+00  1.0683635968805749e+00  1.0694322089149859e+00  1.0656713731902738e+00  1.0516396525207707e+00  1.0690291117991457e+00  1.0702488883447763e+00  1.0512286896012450e+00  1.0483616091126833e+00  1.0525880919288413e+00  1.2097044271838688e+00  1.5860000732475092e+00  1.4496580066479068e+00  1.2772755581932131e+00  1.2245159128610528e+00  1.3462886602851114e+00  1.3347120548733442e+00  1.3974272342779763e+00  1.2779196341420547e+00  1.3966287052503910e+00  1.2260240316902875e+00  1.3462140679386685e+00  1.2783272379326531e+00  1.3966706103167121e+00  1.4423673004185433e+00  1.4420607501250522e+00  1.3268213517623333e+00  1.4422552430938735e+00  1.2780024396508762e+00  1.3967687138432308e+00  1.2245781388094550e+00  1.3269266558490429e+00  1.4417350042854240e+00  1.2250222151621029e+00  1.5560557292688344e+00  1.5888770322848353e+00  1.5233252384795319e+00  1.5275189454012563e+00  1.4844560299766048e+00  1.5883454080198474e+00  1.5247086618355101e+00  1.5574890397209920e+00  1.4835974158217289e+00  1.5574618117183519e+00  1.4844117293578121e+00  1.5877018971716772e+00  1.5246767645260275e+00  1.6321176806991669e+00  1.6270870867721592e+00  1.6110662524156332e+00  1.5983207810598616e+00  1.5575737448419074e+00  1.4840363708061857e+00  1.5888035752640113e+00  1.5249910159552582e+00  1.6306746785355606e+00  1.6277630735820392e+00  1.6135142000732152e+00  1.5988404522211679e+00  1.1407167837068424e+00  1.1152803723029030e+00  1.1146482450865720e+00  1.1981993937275588e+00  1.6348500346592427e+00  1.6327215175695906e+00  1.6164620257249858e+00  1.6005178984302850e+00  1.6340924133631187e+00  1.6003409727785212e+00  1.1155498350312563e+00  1.1998558697537944e+00  1.6395004404175775e+00  1.6141348701848086e+00  1.6376474445235867e+00  1.1180837957825560e+00  1.1425276936397535e+00  1.1165911039598919e+00  1.1978294996314633e+00  1.1158468782819038e+00  1.1177322645072070e+00  1.6349604814143504e+00  1.1167355960895520e+00  1.1188919232253491e+00  1.1188436956049927e+00  1.1986864614457515e+00  1.1214554683853861e+00  1.1186712595342234e+00  1.6301131864749419e+00  1.1430947248860595e+00  1.6314112041174866e+00  1.1430695729434528e+00  </DataArray> 
</PointData> 
</Piece>
</UnstructuredGrid>
</VTKFile>