<?xml version="1.0"?>
<VTKFile type="UnstructuredGrid"  version="0.1"  >
<UnstructuredGrid>
<Piece  NumberOfPoints="197" NumberOfCells="344">
<Points>
<DataArray  type="Float64"  NumberOfComponents="3"  format="ascii">0 0 0  0 2 0  4 2 0  4 0 0  0 0.2499999999995515 0  0 0.4999999999988241 0  0 0.7499999999981061 0  0 0.999999999997388 0  0 1.249999999998036 0  0 1.499999999998683 0  0 1.749999999999342 0  0.2499999999994824 2 0  0.4999999999990952 2 0  0.7499999999983717 2 0  0.9999999999976482 2 0  1.249999999996919 2 0  1.49999999999619 2 0  1.749999999995483 2 0  1.999999999994776 2 0  2.249999999995413 2 0  2.49999999999605 2 0  2.749999999996708 2 0  2.999999999997367 2 0  3.249999999998025 2 0  3.499999999998683 2 0  3.749999999999341 2 0  4 1.750000000000209 0  4 1.500000000000693 0  4 1.250000000002256 0  4 1.000000000004118 0  4 0.7500000000030995 0  4 0.5000000000020808 0  4 0.2500000000010403 0  3.749999999999274 0 0  3.499999999998004 0 0  3.249999999999506 0 0  3.000000000001386 0 0  2.750000000003406 0 0  2.500000000004855 0 0  2.250000000006474 0 0  2.000000000008237 0 0  1.750000000007239 0 0  1.500000000006242 0 0  1.250000000005202 0 0  1.000000000004162 0 0  0.7500000000031211 0 0  0.500000000002081 0 0  0.2500000000010405 0 0  2.751943738452744 0.4502303079023504 0  1.750000000006644 0.4330127018922776 0  1.24999999999692 1.566987298109043 0  2.198013603145998 1.55809283687899 0  3.247881315357668 1.576613977471344 0  0.7521186846436931 0.4233860225293321 0  3.604646881608647 0.7183803468350101 0  0.3953531183914658 1.281619653165416 0  1.25035311411272 0.4314082553323813 0  1.500058852358896 0.8445724375661612 0  1.989156378093928 0.8579334422883895 0  1.750000000009022 1.299038105676122 0  0.9973508174755198 0.8076485688783537 0  2.749999999997339 1.566987298107004 0  3.002717843603222 1.188508528991859 0  2.533455241124366 1.190277318175192 0  2.22583414908933 0.4214378737978327 0  3.279641263780507 0.389092528073727 0  3.552608346638475 1.213748434721428 0  0.7206826926270968 1.613777072928224 0  0.4473966578135999 0.7859714703715941 0  2.767860793511576 0.8832772111385303 0  1.749999999995483 1.694100648860432 0  1.258589614778837 1.151739544308598 0  3.633974596214294 0.3660254037857282 0  3.633974596214256 1.633974596214794 0  0.366025403785061 1.633974596214344 0  0.3660254037865152 0.3660254037856426 0  3.187282366407972 0.799919109919273 0  0.8210937919434733 1.200395787834862 0  2.382690224779792 0.8121957412458931 0  2.148692841347422 1.187388232457183 0  0.7223737376445598 0.7968100196249739 0  0.6342452248785366 0.993183629103228 0  0.9092223047094965 1.004022178356608 0  3.277663095120849 1.201128481856643 0  3.369945356523223 1.00683377232035 0  3.095000105005597 0.9942138194555659 0  0.8747347510596064 0.6155172957038428 0  0.5997576712286465 0.604678746450463 0  3.125299579480445 1.382561253231602 0  3.400244830998071 1.395181206096386 0  1.500000000002971 1.433012701892583 0  1.50429480739393 1.22538882499236 0  1.254294807387878 1.359363421208821 0  1.499999999996201 1.630543973484738 0  1.750000000002252 1.496569377268277 0  1.97400680157751 1.428565471277556 0  1.97400680157074 1.626096742869711 0  3.578627614123561 0.9660643907782188 0  3.395964624008309 0.7591497283771416 0  0.4213748881025329 1.033795561768505 0  0.6082234551674696 1.241007720500139 0  3.802323440804323 0.6091901734185454 0  3.802323440804323 0.8591901734195642 0  1.001235899378206 0.4273971389308567 0  1.12385196579412 0.6195284121053675 0  1.500176557059682 0.4322104786123294 0  1.375205983235808 0.6379903464492712 0  1.62502942618277 0.6387925697292194 0  2.876358921800281 1.377747913549431 0  2.768086542363794 1.189392923583525 0  2.641727620560853 1.378632308141098 0  1.625000000006443 0.2165063509461388 0  1.87500000000744 0.2165063509461388 0  2.474006801571669 1.562540067492997 0  2.365734422135182 1.374185077527091 0  0.1976765591957329 1.39080982658205 0  0.1976765591957329 1.140809826581402 0  1.375176557059481 0.2157041276661906 0  2.998940657677504 1.571800637789174 0  0.8760593423239273 0.2116930112646661 0  1.125176557058441 0.2157041276661906 0  2.112917074548784 0.2107189368989164 0  2.362917074547092 0.2107189368989164 0  3.373940657678175 1.788306988735672 0  3.123940657677517 1.788306988735672 0  2.874999999997353 1.783493649053502 0  2.349006801571024 1.779046418439495 0  2.624999999996695 1.783493649053502 0  1.248704834917208 0.8261105032222574 0  2.099006801570387 1.779046418439495 0  0.6260593423228871 0.2116930112646661 0  1.744607615226412 0.8512529399272754 0  1.869578189050286 0.6454730720903336 0  2.625971869228799 0.2251151539511752 0  2.488888943771037 0.4358340908500916 0  1.987917074547987 0.4272252878450552 0  1.625029426183959 1.071805271621142 0  1.869578189051475 1.078485773982256 0  1.374999999996555 1.783493649054522 0  1.124999999997284 1.783493649054522 0  2.875971869227065 0.2251151539511752 0  2.107495263591629 0.6396856580431112 0  3.015792501116626 0.4196614179880387 0  2.969613052430358 0.6250747089108117 0  3.233461815094239 0.5945058189965 0  0.9853413463120082 1.590382185518634 0  1.035546895970196 1.383691542971953 0  0.7708882422852851 1.407086430381543 0  2.75990226598216 0.6667537595204404 0  2.977571579959774 0.8415981605289016 0  1.039841703361155 1.17606766607173 0  2.17335322224671 1.372740534668087 0  1.949346420678222 1.243213169066653 0  3.776304173319237 1.106874217362773 0  3.776304173319237 1.35687421736106 0  3.139820631890947 0.1945462640368635 0  3.389820631889256 0.1945462640368635 0  0.2236983289068 0.892985735184491 0  0.2236983289068 0.6429857351852091 0  0.8603413463123726 1.806888536464112 0  0.610341346313096 1.806888536464112 0  1.874999999995129 1.847050324430216 0  1.379324233568866 0.9981559909373798 0  1.624999999995837 1.847050324430216 0  3.566987298106149 0.1830127018928641 0  3.816987298107147 0.1830127018928641 0  3.816987298107128 1.566987298107743 0  3.816987298107128 1.816987298107397 0  0.1830127018932576 0.1830127018928213 0  0.4330127018942981 0.1830127018928213 0  0.1830127018932576 0.4330127018922334 0  3.566987298106469 1.816987298107397 0  0.4330127018920781 1.816987298107172 0  0.1830127018925305 1.816987298107172 0  0.1830127018925305 1.566987298106514 0  3.816987298107147 0.4330127018939045 0  2.304262186934561 0.616816807521863 0  2.567316981616268 0.6312130245741218 0  2.575275509145684 0.8477364761922117 0  3.593291471426365 1.42386151546811 0  0.4067110308000575 0.5759984370786184 0  3.4568079299974 0.3775589659297276 0  0.5433540482060789 1.623875834571284 0  2.885289318557399 1.035892870065195 0  2.650658017317971 1.036777264656861 0  1.127970216127178 0.9796940565934761 0  3.61931073891147 0.5422028753103691 0  3.440927955785962 1.605294286843069 0  0.5590720442151041 0.3947057131574874 0  0.3806892610882634 1.45779712468988 0  2.068924609720675 1.022660837372786 0  2.341074041235895 1.188832775316187 0  2.18592330143686 0.8350645917671413 0  3.442144072694577 0.5537364374543685 0  0.5580179055092813 1.44769836304682 0  2.458072732952079 1.001236529710542 0  2.265691533063607 0.9997919868515381 0  </DataArray>
</Points>
<Cells>
<DataArray  type="UInt32"  Name="connectivity"  format="ascii">60 80 82  80 81 82  68 80 81  77 81 82  62 83 85  83 84 85  66 83 84  76 84 85  60 80 86  80 86 87  53 86 87  68 80 87  62 83 88  83 88 89  52 88 89  66 83 89  50 90 92  90 91 92  59 90 91  71 91 92  59 90 94  90 93 94  50 90 93  70 93 94  51 95 96  94 95 96  59 94 95  70 94 96  66 84 97  84 97 98  54 97 98  76 84 98  68 81 99  81 99 100  55 99 100  77 81 100  29 30 102  30 101 102  30 31 101  54 101 102  56 103 104  86 103 104  53 86 103  60 86 104  49 105 107  105 106 107  56 105 106  57 106 107  61 108 110  108 109 110  62 108 109  63 109 110  40 41 112  41 111 112  41 42 111  49 111 112  51 113 114  110 113 114  61 110 113  63 110 114  7 8 116  8 115 116  8 9 115  55 115 116  49 105 111  105 111 117  42 111 117  56 105 117  61 108 118  88 108 118  52 88 118  62 88 108  44 119 120  103 119 120  53 103 119  56 103 120  38 39 122  39 121 122  39 40 121  64 121 122  22 23 124  23 123 124  23 24 123  52 123 124  22 124 125  118 124 125  52 118 124  61 118 125  51 113 126  113 126 127  20 126 127  61 113 127  42 43 117  43 117 120  43 44 120  56 117 120  57 106 128  104 106 128  56 104 106  60 104 128  18 19 129  19 126 129  19 20 126  51 126 129  44 45 119  45 119 130  45 46 130  53 119 130  49 107 132  107 131 132  57 107 131  58 131 132  48 133 134  122 133 134  38 122 133  64 122 134  40 112 121  112 121 135  49 112 135  64 121 135  20 21 127  21 125 127  21 22 125  61 125 127  58 131 137  131 136 137  57 131 136  59 136 137  14 15 139  15 138 139  15 16 138  50 138 139  36 37 140  37 133 140  37 38 133  48 133 140  49 132 135  132 135 141  58 132 141  64 135 141  65 142 144  142 143 144  48 142 143  76 143 144  67 145 147  145 146 147  50 145 146  77 146 147  48 143 148  143 148 149  69 148 149  76 143 149  50 92 146  92 146 150  71 92 150  77 146 150  59 95 152  95 151 152  51 95 151  79 151 152  27 28 154  28 153 154  28 29 153  66 153 154  34 35 156  35 155 156  35 36 155  65 155 156  5 6 158  6 157 158  6 7 157  68 157 158  12 13 160  13 159 160  13 14 159  67 159 160  29 102 153  97 102 153  54 97 102  66 97 153  36 140 155  140 142 155  48 140 142  65 142 155  7 116 157  99 116 157  55 99 116  68 99 157  14 139 159  139 145 159  50 139 145  67 145 159  18 129 161  96 129 161  51 96 129  70 96 161  59 91 136  91 136 162  57 136 162  71 91 162  50 93 138  93 138 163  16 138 163  70 93 163  3 33 165  33 164 165  33 34 164  72 164 165  2 26 167  26 166 167  26 27 166  73 166 167  46 47 169  47 168 169  0 47 168  75 168 169  0 4 168  4 168 170  4 5 170  75 168 170  24 25 171  25 167 171  2 25 167  73 167 171  1 11 173  11 172 173  11 12 172  74 172 173  9 10 174  10 173 174  1 10 173  74 173 174  31 32 175  32 165 175  3 32 165  72 165 175  48 134 177  134 176 177  64 134 176  78 176 177  69 148 178  148 177 178  48 148 177  78 177 178  27 154 166  154 166 179  66 154 179  73 166 179  5 158 170  158 170 180  68 158 180  75 170 180  34 156 164  156 164 181  65 156 181  72 164 181  12 160 172  160 172 182  67 160 182  74 172 182  63 109 184  109 183 184  62 109 183  69 183 184  57 128 162  128 162 185  60 128 185  71 162 185  16 17 163  17 161 163  17 18 161  70 161 163  54 101 186  101 175 186  31 101 175  72 175 186  52 123 187  123 171 187  24 123 171  73 171 187  53 130 188  130 169 188  46 130 169  75 169 188  55 115 189  115 174 189  9 115 174  74 174 189  58 137 190  137 152 190  59 137 152  79 152 190  51 114 151  114 151 191  63 114 191  79 151 191  64 141 176  141 176 192  58 141 192  78 176 192  65 181 193  181 186 193  54 186 193  72 181 186  66 89 179  89 179 187  52 89 187  73 179 187  67 182 194  182 189 194  55 189 194  74 182 189  68 87 180  87 180 188  53 87 188  75 180 188  63 191 195  191 195 196  78 195 196  79 191 196  78 192 196  190 192 196  58 190 192  79 190 196  54 98 193  98 144 193  65 144 193  76 98 144  55 100 194  100 147 194  67 147 194  77 100 147  71 150 185  82 150 185  60 82 185  77 82 150  69 149 183  85 149 183  62 85 183  76 85 149  63 184 195  178 184 195  69 178 184  78 178 195  </DataArray>
<DataArray  type="UInt32"  Name="offsets"  format="ascii">3 6 9 12 15 18 21 24 27 30 33 36 39 42 45 48 51 54 57 60 63 66 69 72 75 78 81 84 87 90 93 96 99 102 105 108 111 114 117 120 123 126 129 132 135 138 141 144 147 150 153 156 159 162 165 168 171 174 177 180 183 186 189 192 195 198 201 204 207 210 213 216 219 222 225 228 231 234 237 240 243 246 249 252 255 258 261 264 267 270 273 276 279 282 285 288 291 294 297 300 303 306 309 312 315 318 321 324 327 330 333 336 339 342 345 348 351 354 357 360 363 366 369 372 375 378 381 384 387 390 393 396 399 402 405 408 411 414 417 420 423 426 429 432 435 438 441 444 447 450 453 456 459 462 465 468 471 474 477 480 483 486 489 492 495 498 501 504 507 510 513 516 519 522 525 528 531 534 537 540 543 546 549 552 555 558 561 564 567 570 573 576 579 582 585 588 591 594 597 600 603 606 609 612 615 618 621 624 627 630 633 636 639 642 645 648 651 654 657 660 663 666 669 672 675 678 681 684 687 690 693 696 699 702 705 708 711 714 717 720 723 726 729 732 735 738 741 744 747 750 753 756 759 762 765 768 771 774 777 780 783 786 789 792 795 798 801 804 807 810 813 816 819 822 825 828 831 834 837 840 843 846 849 852 855 858 861 864 867 870 873 876 879 882 885 888 891 894 897 900 903 906 909 912 915 918 921 924 927 930 933 936 939 942 945 948 951 954 957 960 963 966 969 972 975 978 981 984 987 990 993 996 999 1002 1005 1008 1011 1014 1017 1020 1023 1026 1029 1032 </DataArray>
<DataArray  type="UInt8"  Name="types"  format="ascii">5 5 5 5 5 5 5 5 5 5 5 5 5 5 5 5 5 5 5 5 5 5 5 5 5 5 5 5 5 5 5 5 5 5 5 5 5 5 5 5 5 5 5 5 5 5 5 5 5 5 5 5 5 5 5 5 5 5 5 5 5 5 5 5 5 5 5 5 5 5 5 5 5 5 5 5 5 5 5 5 5 5 5 5 5 5 5 5 5 5 5 5 5 5 5 5 5 5 5 5 5 5 5 5 5 5 5 5 5 5 5 5 5 5 5 5 5 5 5 5 5 5 5 5 5 5 5 5 5 5 5 5 5 5 5 5 5 5 5 5 5 5 5 5 5 5 5 5 5 5 5 5 5 5 5 5 5 5 5 5 5 5 5 5 5 5 5 5 5 5 5 5 5 5 5 5 5 5 5 5 5 5 5 5 5 5 5 5 5 5 5 5 5 5 5 5 5 5 5 5 5 5 5 5 5 5 5 5 5 5 5 5 5 5 5 5 5 5 5 5 5 5 5 5 5 5 5 5 5 5 5 5 5 5 5 5 5 5 5 5 5 5 5 5 5 5 5 5 5 5 5 5 5 5 5 5 5 5 5 5 5 5 5 5 5 5 5 5 5 5 5 5 5 5 5 5 5 5 5 5 5 5 5 5 5 5 5 5 5 5 5 5 5 5 5 5 5 5 5 5 5 5 5 5 5 5 5 5 5 5 5 5 5 5 5 5 5 5 5 5 5 5 5 5 5 5 5 5 5 5 5 5 5 5 5 5 5 5 5 5 5 5 5 5 </DataArray>
</Cells>
<PointData  Scalars="P"> 
<DataArray  type="Float64"  Name="P"  format="ascii">9.0910638773371168e+00  9.0902735245025248e+00  1.9832558425167996e+00  1.9838923388809884e+00  8.9388192328113298e+00  8.8553495085986924e+00  8.8355655532421000e+00  8.8312180285499338e+00  8.8329226313531581e+00  8.8494674091925756e+00  8.9376209184923923e+00  8.7910451335928137e+00  8.3468753618176130e+00  7.8765095838306687e+00  7.3944929703139968e+00  6.9045688589159999e+00  6.4096605621125482e+00  5.9122946510770529e+00  5.4140543238767727e+00  4.9158635700841744e+00  4.4189316408093058e+00  3.9257543866021889e+00  3.4416000328428757e+00  2.9760998944613020e+00  2.5454389268088864e+00  2.1833977968005529e+00  1.9935573416481192e+00  1.9914345466366083e+00  1.9864072691391961e+00  1.9872097604669545e+00  1.9892444726040421e+00  1.9970456326607562e+00  1.9945054322379800e+00  2.1837167725566369e+00  2.5452007807983521e+00  2.9760260859323373e+00  3.4416266724658025e+00  3.9256802720081949e+00  4.4188908092162800e+00  4.9158467605941194e+00  5.4140627351787911e+00  5.9123318013086710e+00  6.4096358733360148e+00  6.9044811201598275e+00  7.3944894489922657e+00  7.8764976877022557e+00  8.3466767018573567e+00  8.7914473375355247e+00  3.9242239322089953e+00  5.9117295180987268e+00  6.9030006252887972e+00  5.0201294728284260e+00  2.9768347638139914e+00  7.8682615275326961e+00  2.3583607182518405e+00  8.4756585149244028e+00  6.9021423500328343e+00  6.4072883230603690e+00  5.4359015631850944e+00  5.9113925592356935e+00  7.3951576127635317e+00  3.9280902851598389e+00  3.4368807245518016e+00  4.3558365406856012e+00  4.9647739668651560e+00  2.9190897665583622e+00  2.4354040624020983e+00  7.9284596499145765e+00  8.3960133979546576e+00  3.8944642076917448e+00  5.9119264525665240e+00  6.8841554999343195e+00  2.3266947156861071e+00  2.3272146666039655e+00  8.5502920060201983e+00  8.5499459991110172e+00  3.0856062431260578e+00  7.7319068331138903e+00  4.6543040859024938e+00  5.1187773426381078e+00  7.9166081641470729e+00  8.0741942865812977e+00  7.5639042399367913e+00  2.9167222944325917e+00  2.7488410416655351e+00  3.2596803225083399e+00  7.6325913666105976e+00  8.1425737525074791e+00  3.2031619416827208e+00  2.6985273353289707e+00  6.4080012316474910e+00  6.3989985065322825e+00  6.8934299135661030e+00  6.4086465700654136e+00  5.9116223200055034e+00  5.4659557192794868e+00  5.4659023990552562e+00  2.3961213858901327e+00  2.7040300394552199e+00  8.4307465820595748e+00  8.1228777470932663e+00  2.1029982874609208e+00  2.1007245098300706e+00  7.3902411601342068e+00  7.1497298176140127e+00  6.4080544973553808e+00  6.6548460958517826e+00  6.1597317973768195e+00  3.6819550223792579e+00  3.8937294072505706e+00  4.1416811639749849e+00  6.1608296219680492e+00  5.6631489223124580e+00  4.4721880996548293e+00  4.6874787290993023e+00  8.7344701354826402e+00  8.7218044100208978e+00  6.6565833909675183e+00  3.4449314415496906e+00  7.6342712115949860e+00  7.1493355088159971e+00  5.1891109946349712e+00  4.6915774064008957e+00  2.7546196297056942e+00  3.2079954164173117e+00  3.6831456177151107e+00  4.7192579755384259e+00  4.1725017343752633e+00  6.9038472635816204e+00  5.2168315472819033e+00  8.1100345567355152e+00  5.9219879240138207e+00  5.6736784306776187e+00  4.1705793369829358e+00  4.4427083356789749e+00  5.4382273268842436e+00  6.1594106033238534e+00  5.6736109509439148e+00  6.6569972901944414e+00  7.1497776644620776e+00  3.6812021992836126e+00  5.2004982684960446e+00  3.4125528054360865e+00  3.5012060165001060e+00  3.0010015338099123e+00  7.4214119443900159e+00  7.3220685055396677e+00  7.8294435709028933e+00  3.9095874252014373e+00  3.4857759345295007e+00  7.3122712653195876e+00  5.0695408614289779e+00  5.5150287539080871e+00  2.1258970478313741e+00  2.1277577082861527e+00  3.1782495840287370e+00  2.7273333940176152e+00  8.6964696407932109e+00  8.7069842283363741e+00  7.6646878866935086e+00  8.1397924106125377e+00  5.6631756639442976e+00  6.6460550875085707e+00  6.1609611755209750e+00  2.4350771549376011e+00  2.1012618591722334e+00  2.0927972498697360e+00  2.1008460134674993e+00  8.8542146065511655e+00  8.4637440597235543e+00  8.7747790193187232e+00  2.4351564386156439e+00  8.4639580417571967e+00  8.8536492132468272e+00  8.7742793281426170e+00  2.0932620370896808e+00  4.8094713993463314e+00  4.2885021630730025e+00  4.2732979793414509e+00  2.3778303706904400e+00  8.4674369070086009e+00  2.6071771351355348e+00  8.2538304446013786e+00  3.6647375656373296e+00  4.1247035194981230e+00  7.1403603519101964e+00  2.3408733215978237e+00  2.6336465895406933e+00  8.2247768258526630e+00  8.5084085767940483e+00  5.2773546433483309e+00  4.7368011859087549e+00  5.0448278777735682e+00  2.6274587748218075e+00  8.2175901999326797e+00  4.5051031644931649e+00  4.8864996356316386e+00  </DataArray> 
</PointData> 
</Piece>
</UnstructuredGrid>
</VTKFile>