<?xml version="1.0"?>
<VTKFile type="UnstructuredGrid"  version="0.1"  >
<UnstructuredGrid>
<Piece  NumberOfPoints="65" NumberOfCells="64">
<Points>
<DataArray  type="Float64"  NumberOfComponents="3"  format="ascii">0 0 0  0.0625 0 0  0.125 0 0  0.1875 0 0  0.25 0 0  0.3125 0 0  0.375 0 0  0.4375 0 0  0.5 0 0  0.5625 0 0  0.625 0 0  0.6875 0 0  0.75 0 0  0.8125 0 0  0.875 0 0  0.9375 0 0  1 0 0  1.0625 0 0  1.125 0 0  1.1875 0 0  1.25 0 0  1.3125 0 0  1.375 0 0  1.4375 0 0  1.5 0 0  1.5625 0 0  1.625 0 0  1.6875 0 0  1.75 0 0  1.8125 0 0  1.875 0 0  1.9375 0 0  2 0 0  2.0625 0 0  2.125 0 0  2.1875 0 0  2.25 0 0  2.3125 0 0  2.375 0 0  2.4375 0 0  2.5 0 0  2.5625 0 0  2.625 0 0  2.6875 0 0  2.75 0 0  2.8125 0 0  2.875 0 0  2.9375 0 0  3 0 0  3.0625 0 0  3.125 0 0  3.1875 0 0  3.25 0 0  3.3125 0 0  3.375 0 0  3.4375 0 0  3.5 0 0  3.5625 0 0  3.625 0 0  3.6875 0 0  3.75 0 0  3.8125 0 0  3.875 0 0  3.9375 0 0  4 0 0  </DataArray>
</Points>
<Cells>
<DataArray  type="UInt32"  Name="connectivity"  format="ascii">0 1  1 2  2 3  3 4  4 5  5 6  6 7  7 8  8 9  9 10  10 11  11 12  12 13  13 14  14 15  15 16  16 17  17 18  18 19  19 20  20 21  21 22  22 23  23 24  24 25  25 26  26 27  27 28  28 29  29 30  30 31  31 32  32 33  33 34  34 35  35 36  36 37  37 38  38 39  39 40  40 41  41 42  42 43  43 44  44 45  45 46  46 47  47 48  48 49  49 50  50 51  51 52  52 53  53 54  54 55  55 56  56 57  57 58  58 59  59 60  60 61  61 62  62 63  63 64  </DataArray>
<DataArray  type="UInt32"  Name="offsets"  format="ascii">2 4 6 8 10 12 14 16 18 20 22 24 26 28 30 32 34 36 38 40 42 44 46 48 50 52 54 56 58 60 62 64 66 68 70 72 74 76 78 80 82 84 86 88 90 92 94 96 98 100 102 104 106 108 110 112 114 116 118 120 122 124 126 128 </DataArray>
<DataArray  type="UInt8"  Name="types"  format="ascii">3 3 3 3 3 3 3 3 3 3 3 3 3 3 3 3 3 3 3 3 3 3 3 3 3 3 3 3 3 3 3 3 3 3 3 3 3 3 3 3 3 3 3 3 3 3 3 3 3 3 3 3 3 3 3 3 3 3 3 3 3 3 3 3 </DataArray>
</Cells>
<PointData  Scalars="U"> 
<DataArray  type="Float64"  Name="U"  format="ascii">1.0000000000000000e+00  1.0025914428150495e+00  1.0097885600226804e+00  1.0205536537129949e+00  1.0340570525582902e+00  1.0496274519892712e+00  1.0667158365502705e+00  1.0848688381343163e+00  1.1037087703412511e+00  1.1229184649130171e+00  1.1422296143776787e+00  1.1614137099423136e+00  1.1802749245417015e+00  1.1986444706636075e+00  1.2163760882512400e+00  1.2333424071000725e+00  1.2494319921704671e+00  1.2645469267546094e+00  1.2786008226192191e+00  1.2915171716246230e+00  1.3032279723456628e+00  1.3136725796106261e+00  1.3227967358522590e+00  1.3305517516062582e+00  1.3368938090324289e+00  1.3417833674363027e+00  1.3451846537770271e+00  1.3470652243156314e+00  1.3473955860773583e+00  1.3461488688169774e+00  1.3433005397965716e+00  1.3388281549952916e+00  1.3327111414347528e+00  1.3249306061723098e+00  1.3154691682265580e+00  1.3043108102857595e+00  1.2914407475346936e+00  1.2768453113378575e+00  1.2605118458522455e+00  1.2424286159233489e+00  1.2225847248533299e+00  1.2009700408284676e+00  1.1775751309603484e+00  1.1523912020371057e+00  1.1254100472015627e+00  1.0966239978758803e+00  1.0660258803401454e+00  1.0336089764476124e+00  9.9936698802399149e-01  9.6329400455391179e-01  9.2538447380580302e-01  8.8563317508810235e-01  8.4403519486583223e-01  8.0058590449801903e-01  7.5528093988380929e-01  7.0811618282904831e-01  6.5908774396600911e-01  6.0819194707730040e-01  5.5542531469109158e-01  5.0078455482896966e-01  4.4426654880023730e-01  3.8586833994750047e-01  3.2558712325815248e-01  2.6342023576501278e-01  1.9936514766705471e-01  </DataArray> 
</PointData> 
</Piece>
</UnstructuredGrid>
</VTKFile>