<?xml version="1.0"?>
<VTKFile type="UnstructuredGrid"  version="0.1"  >
<UnstructuredGrid>
<Piece  NumberOfPoints="3947" NumberOfCells="20667">
<Points>
<DataArray  type="Float64"  NumberOfComponents="3"  format="ascii">0.7484792964046479 1.945640441407349 1.310947329509815  0.8264737831131884 1.82282476272647 1.167859777677803  0.8211784514095547 1.814596949676366 1.317543916370754  0.6753823557351335 1.784157501724169 1.295822074550997  2.586613142804729 0.9211760848744309 1.063187239704553  2.487701220527172 0.7698814271872171 0.9658991305405331  2.51550363339253 0.9081787643159546 0.9235716538270361  2.665464605929204 0.807557605961393 1.02559613877494  3.386657361036267 1.322401728102282 0.626565904273406  3.342429169645643 1.480460803185951 0.7564643264348154  3.48636609669229 1.411410922655469 0.8049666317516542  3.495100387488311 1.428146710598719 0.6488570027342682  0.7760822591132283 1.396144150180848 0.8719804804856691  0.8785919651102059 1.374887312118402 0.7524455271964237  0.8978199162916143 1.468606969006071 0.9385902008381439  0.9387720433031265 1.344355905227233 0.8771381766005737  0.9903233083155036 0.398054360774063 1.395380350089314  0.8511193562752318 0.4099503540742666 1.437168474552898  0.7850275066926798 0.2956040004721004 1.346384961921693  0.8994435612243643 0.2769918363615342 1.467604178331059  2.303152983657813 0.01345149024319819 0.86342472759355  2.392616838522338 0.02864302915704764 0.7738287067065267  2.280517724656332 0.2214962618671725 0.9031767657205948  2.439633264965155 0.1657095612096446 0.9781975091661335  2.263390137727612 0.1788765599859227 0.6424963433051345  2.127534683864245 0.2771149990115198 0.5725209696060672  2.120650003011312 0.3073560657523674 0.7091304527994035  2.260704415282883 0.3045907975998703 0.7080410760366491  2.756177236745325 1.245706385689164 1.251003188198582  2.63833340343229 1.064396632533515 1.180097055906192  2.831719912960561 1.143945078835541 1.131097441409368  2.786140405986177 1.097164272393858 1.313741053698652  1.687421068899596 1.264013885407487 1.307713118399747  1.704446120220927 1.14004142538771 1.40317025878289  1.888179520377503 1.137871338529523 1.382904818450154  1.810871429510797 1.246377978348911 1.487082650020676  0.4271788467759188 1.007889143401993 1.012923197928871  0.2984940859150814 1.121096593511055 0.9652272677088363  0.5016558425270625 1.132209614120582 0.9724542279295479  0.3897954905464865 0.979693670116724 0.8401292205703385  1.953672846364036 1.670039739301059 0.7157479713305051  2.153175266265543 1.751936790307182 0.6653515613116958  2.007661651583985 1.618777664392744 0.5925544855085132  2.040538180618337 1.760360474378888 0.5714748442651851  2.08347360065584 1.605606707997773 0.7566868452840445  0.8883508826315121 0.2899097514417353 1.170871415338774  0.8340011412839687 0.4347909341591429 1.163979997193829  1.004753275236736 0.4377814400474784 1.078654243543082  0.8423026292408736 0.3850133539643738 0.9926942516161165  3.012174956575775 1.403975814220963 1.22074351472594  2.925556537220674 1.291537106467422 1.047217135351169  3.093286801447654 1.292522588995289 1.169612829500074  2.943930005215615 1.27570256591254 1.198295794448675  3.449420531800714 0.4611762042933386 0.7876300668952341  3.304392258633301 0.3300712741046241 0.8695209340836725  3.363546814656996 0.3474536279780144 0.7341778923223142  3.43237997010472 0.4080768803950173 0.9269939588177882  1.162815078867398 1.551200044999813 1.833805526465321  1.321838101016689 1.446146669629506 1.687849253085605  1.297734772769733 1.435060487132545 1.895883413469777  1.150209940545716 1.367665207358911 1.734323546526868  1.369744357395019 0.5792594271533149 1.488531225485241  1.299614069258321 0.4679522601806686 1.608756029458549  1.217601934235663 0.5667710838608562 1.499012754540257  1.262676058433818 0.4692172316007508 1.385781164271629  1.427301112162204 1.307107576083255 1.42242218187035  1.459990864375008 1.372914626858895 1.556131921164214  1.406884049474602 1.514454610662928 1.535550827669372  1.290873012332415 1.333366592891015 1.445536402086988  2.892536108099083 1.637550250419398 1.101021327528131  2.832518696559174 1.785200656559708 1.240102031487995  2.759834825297586 1.863957682259344 1.102139797975282  2.704247649814682 1.715865425045907 1.106589098533989  1.288041072037365 0.8453708217719494 1.767797273739818  1.291085780804693 0.980407111339392 1.85653012602985  1.304838353378635 0.965738089503508 1.688556727858737  1.125693298706474 0.9982411713790363 1.819576140540798  3.008574376862158 1.500979144842618 1.656093887125796  2.804236849271924 1.44467336512671 1.595103065582691  2.895877050441214 1.593492251527737 1.628678546594985  2.931756463460721 1.363235874911641 1.570718145879887  4 0.2345556838510304 0.8531719452582082  3.834270262974777 0.3103219681788207 0.9596064409176921  4 0.2862973108781005 1.040143149832266  4 0.3674523280986416 0.9170396679967771  1.147031970525674 0.878105856554057 0.3040728292709414  1.146751973264266 0.7094673757837229 0.1839388745089099  1.00513994355042 0.7057557686308064 0.2674613327590547  1.025991184182604 0.8481053162448963 0.1750485510344111  0.6499976633714849 1.092172145230599 1.990921836065798  0.7687560359935679 1.029490530596691 1.997095436255785  0.6133046840088614 0.9034971195327748 1.990495295874775  0.5688812510443387 1.010280325356718 1.88526489008522  3.401706743103199 1.850481234517673 0.4799980104395526  3.354796978521071 1.804695283306623 0.6665105725793509  3.289387696425021 1.906445394242166 0.5846995890604438  3.325313084876909 1.670809442098849 0.4843096933002835  3.811729602160472 0.9748655624238457 0.614798347480677  3.785295091619644 0.9830353301346657 0.421250744278571  3.757837554260462 0.7642781593569007 0.5714735118598502  3.659320347779473 0.9380982594328134 0.535310833259683  0.2661293045996983 1.374007751453269 1.783011698292156  0.1677120896767356 1.224113574789705 1.791007503112675  0.1322572492943411 1.396030584723707 1.746526673752487  0.2575088362894668 1.37155192821321 1.630411806495621  3.101174401247672 1.049706844452603 0.1530971184156665  3.130459031460772 0.861340353610705 0.1507350328143173  3.149156375526787 0.9533993101508726 0.2725570750868446  2.969988422401704 0.9876280048073218 0.1909503648817641  1.101830830819249 0.5301166484708905 1.405917952997364  1.242981076856023 0.7120558299245161 1.458252727854847  1.171522791929184 0.6617919056776702 1.317656558957443  3.160989906024573 0.3692662556953979 0.8652005912572081  3.253817351171076 0.3296981354798163 1.00938224460417  3.042943185006477 0.246967006300017 0.9043181471771632  3.209815283744916 0.2125572168767518 0.8191269222888486  0.9489611647490359 1.397428547393024 0.2556142710512955  1.069081971900955 1.418585371443627 0.356118264297653  1.060235247405318 1.541658379080052 0.1610943468450443  0.9225910952975216 1.522241144157087 0.3510586610244072  2.830331820020819 0.1656688968112542 0.8215314133118734  2.729640460348799 0.2026469921329613 0.6586679954521114  2.663043923870038 0.2259433449887951 0.8118939134259822  2.73764775291415 0.3673353497590968 0.6849379614096234  0.1519674635035164 0.3649041344653586 0.4345243455203555  0 0.4102345977711122 0.4267892935309426  0.2112646876226285 0.515478433484281 0.4271604957482526  0.1352101801357768 0.4934155320869848 0.2973800593007599  1.60685992419324 0.561383024050691 0.8282837575423051  1.472964612932646 0.4456465478675321 0.7959104778960655  1.49461139370813 0.4857550140513799 0.6211139411915916  1.610309989958174 0.3724215687674083 0.7056593539284277  1.937312736524037 1.495489597717555 0.7175710057922482  1.997996699670254 1.372559907928103 0.5447091645151854  2.149692228034521 1.423653851275895 0.6386089369998784  2.010010833249195 1.320992075061056 0.7241777370381473  2.859592962888973 1.634745441520494 1.766492197926426  2.959909998047618 1.691086308218337 1.720254443570602  2.820403977842838 1.722589857199382 1.688240598477962  3.770217988995948 0.4866549821660348 1.032922959379133  3.62917286135684 0.389580798711168 0.8597221195343582  3.821348491358559 0.4470964345246439 0.8426965307730335  0.6933850163406525 0.9564649425250876 0.9864588498832164  0.643211779564687 1.182208847819348 0.9825603244831053  0.7060878570066345 1.110965886932214 0.8236937434627591  0.5934130580336326 0.9719721361558827 0.8711561293811512  3.452927220265629 0.6537804136807167 1.154746472799616  3.453017619297183 0.5845308767129125 1.300204034536189  3.401067908986438 0.4489035168351657 1.129349556791031  3.60143707807966 0.6111539909108756 1.193611511787041  1.911623471791131 1.131372542669703 1.544351793960847  2.111787374780677 1.031174951537286 1.521882726277169  1.970562954181195 0.9792498160914325 1.550816512133083  2.049908323355315 1.116197154325519 1.427371394836696  3.604624846817766 0.3255000566393674 0.5010460986184421  3.487260483903032 0.4187296458455045 0.3547415927456189  3.605762592892114 0.5071567435239437 0.5148028664625225  3.705272667092916 0.4136248090936773 0.3938504866028589  0.4803002747741704 1.02001825832534 0.7222433327114012  0.6847763341178821 0.9120299346400321 0.7113623263308004  0.4359445689689305 0.8737608239626566 0.7033858356678296  0.5432683632099092 0.9362867434054074 0.5926500586651935  0.797643725536006 1.48332516584099 0.5429393862819549  0.7221909644393406 1.586309505411485 0.6586414794859493  0.6983136903250614 1.450608582587867 0.7299865885903963  0.8719844510201139 1.509709852984286 0.7090717025379675  2.225136092177867 1.582068816785901 0.1902772133814531  2.428619146117752 1.623249783978554 0.2240735597422739  2.287073052404935 1.718050635041972 0.3062283433198071  2.349992189277003 1.595470222457904 0.3383717210942384  4 1.118882044628508 1.140627081353804  4 1.040240601816252 1.309811222881284  4 1.200406179802983 1.281391165594322  3.815788673293548 1.091232515979258 1.233950910577889  1.942140351800871 0.7418605404596247 1.680827783063364  2.016805519898041 0.6226331881141091 1.695032305998396  1.92989213899535 0.639927087
[...]
<PointData  Scalars="U"> 
<DataArray  type="Float64"  Name="U"  format="ascii">5.6929717099202504e-01  9.7733476292876242e-01  9.0615917392327650e-01  7.5583595622111766e-01  7.6766119202547447e+00  7.1351218307353914e+00  7.3116057653821427e+00  8.0708681186321147e+00  1.2225497676404084e+01  1.1881464832152556e+01  1.2948571593588314e+01  1.2908360620765423e+01  1.4297916610180339e+00  1.5698370673938393e+00  1.5917278830399908e+00  1.7463479688708370e+00  1.4630978802782579e+00  1.1814728230374094e+00  1.0015854959787183e+00  1.0619406320375382e+00  5.3125828989956245e+00  5.7299275172653887e+00  5.5881055352487543e+00  6.2552551826800782e+00  5.3195066849308663e+00  4.8207361747632786e+00  4.9291077689179383e+00  5.5386339806094806e+00  8.4696393342859171e+00  7.9233424958741479e+00  8.9728732968232130e+00  8.6497233364648469e+00  3.6823408749433568e+00  3.7286341000850531e+00  4.3955654346372075e+00  3.9795086220385048e+00  1.1780159754783350e+00  1.0801865454843482e+00  1.2317172141834551e+00  1.1289018194294933e+00  4.2900422934951692e+00  4.9634633357802622e+00  4.4702260001467788e+00  4.3931068747010986e+00  4.9213320453109253e+00  1.2522587002743280e+00  1.3488415652778960e+00  1.6875993411444234e+00  1.3280866023195070e+00  9.8556163710128342e+00  9.4695626743145898e+00  1.0455324327300264e+01  9.5472151798712357e+00  1.2551087641788454e+01  1.1455450066341138e+01  1.1820139164647289e+01  1.2422770620973260e+01  1.3530857620694858e+00  2.0710112124674405e+00  1.6922308224614426e+00  1.6460487379496804e+00  2.4628817181075804e+00  2.0300484402598604e+00  2.0460838862206288e+00  2.1575917032403327e+00  2.7643651277832917e+00  2.6825848186167986e+00  2.4282472260296863e+00  2.3554304454326873e+00  8.9502130564866302e+00  8.3465669401726146e+00  7.8627197480223341e+00  7.7881997248833947e+00  2.0417340780652857e+00  1.9275570260532473e+00  2.2250303382175556e+00  1.5927906933050946e+00  9.3634826418890249e+00  8.3106791295045923e+00  8.6370899631200331e+00  9.1387213753684495e+00  1.6390372677742246e+01  1.5221936114101197e+01  1.6486160298667635e+01  1.6589190385420288e+01  1.8174817423458169e+00  1.5581170977636243e+00  1.3862187483597057e+00  1.3462435406922066e+00  4.3207517283996727e-01  5.9591684247955590e-01  3.8574889833868053e-01  5.3333071703460144e-01  1.1577888366660250e+01  1.1492025513492628e+01  1.0825953733322907e+01  1.1341247877480441e+01  1.5378293857697194e+01  1.4992527155231668e+01  1.4894950007989266e+01  1.4169051297657019e+01  3.1537799455750060e-01  3.5149449070913075e-01  3.0714626536625905e-01  5.2780105633553087e-01  9.9017465546654062e+00  1.0058199088522805e+01  1.0382699724245471e+01  9.1676739592162075e+00  1.8286544905522293e+00  2.2499832080156068e+00  2.1556255423550725e+00  1.0582403372019654e+01  1.1137429200782583e+01  9.6747413078828188e+00  1.0650550442421670e+01  1.1900912665533110e+00  1.5537574588252632e+00  1.1269422853176436e+00  1.1550900236193553e+00  8.2776247328583974e+00  7.6914919532674517e+00  7.4567141780631738e+00  7.9922753576545897e+00  3.0237862785940628e-01  3.2360625632304224e-01  4.7985426418622085e-01  2.7107399996134851e-01  3.3634940245258402e+00  2.8156997817340867e+00  2.8241120666075474e+00  3.1081359127060204e+00  4.4282078432734293e+00  4.6464798518891053e+00  5.3121917918551613e+00  4.8607211662871155e+00  8.1868598483910038e+00  8.7647004476522010e+00  7.9588673751109749e+00  1.4944399129513135e+01  1.3780740862138041e+01  1.5269750954743273e+01  1.4722598016272692e+00  1.3832962898398546e+00  1.4590281105582013e+00  1.3389561757914981e+00  1.2780011002049838e+01  1.2662080669483158e+01  1.2243981748954395e+01  1.3782787200151125e+01  4.3331209254511069e+00  5.1824653468808375e+00  4.5751953792178179e+00  5.0071074787564731e+00  1.3287244968348306e+01  1.2400778547376213e+01  1.3519946354296948e+01  1.4018979562956615e+01  1.1556591674207637e+00  1.3812491152489241e+00  1.0790748188400021e+00  1.1289320413096027e+00  1.1917965368947265e+00  1.0602326430899520e+00  1.2127831869533203e+00  1.4143531420935769e+00  4.9567755300687448e+00  5.9076888229693783e+00  5.2337873209398662e+00  5.7308757575599056e+00  1.6965352660522193e+01  1.6899797920230998e+01  1.6875325421859753e+01  1.5499263414832667e+01  4.2323998407055372e+00  4.4427580624651872e+00  3.9473120712951073e+00  3.7161073616160123e+00  2.4694241734268201e+00  2.2602860535200278e+00  1.9586856617057775e+00  2.1826425214842704e+00  1.5403275830796778e+01  1.4636902831570609e+01  1.3717075764942527e+01  1.3781943948193881e+01  3.3446695187531348e+00  3.6708788332776616e+00  3.5750749417896790e+00  2.9184548524300000e+00  9.8640186781674046e+00  1.0251773584551129e+01  1.0293163559805695e+01  3.3208503272591179e-02  2.5265025313839679e-01  2.8717439226841834e-01  4.6407575236132320e-01  5.5030286621380800e+00  5.5650065942862570e+00  5.5566727340717010e+00  4.8703276715890294e+00  4.7056456155351025e-03  3.5748571084467391e-02  3.4675008180009459e-02  2.3945120088430047e-01  1.4262294775901871e+01  1.4408795594335972e+01  1.3566888992970608e+01  1.3227679731661496e+01  2.7478851851296376e-01  9.5073248150610024e-03  6.2421829593839462e-03  3.8866435721463966e-01  1.2747243576077469e+01  1.2623927088971170e+01  1.2544396791194066e+01  1.1459287655099622e+01  6.4377567440735417e+00  6.7398866875869761e+00  5.8704352646906788e+00  6.6088610464028852e+00  5.1954204345251691e+00  4.9095010641602883e+00  1.5908894915022644e+00  1.2647206676613321e+00  1.2851849884341515e+00  1.6648721621125258e+00  1.0262368079600366e+00  8.8333439815726966e-01  7.9089286721908725e-01  9.3427413154692462e-01  5.1864400545947626e+00  5.8186259900109487e+00  5.3502087136007415e+00  5.0048442465874770e+00  5.5212400519853055e-01  3.2439465145798640e-01  5.9121819077278692e-01  2.4542960064289812e-01  9.6551192366654508e+00  1.0380894293864316e+01  9.0168374161649574e+00  9.4779435559211311e+00  1.4553919469981702e+01  1.4265460903888341e+01  1.5430699293926818e+01  6.7436203641227133e-01  6.9296713566077750e-01  4.2760589727762260e-01  3.9457392521779877e-01  1.5231792265155191e+01  1.4862421316358541e+01  1.4909860058185838e+01  1.5434069684518658e+01  1.5120080134177942e+00  1.2313990150891307e+00  1.2364015826459702e+00  9.9497078591720811e-01  1.5712561862144541e+00  1.4289009646561690e+00  1.0946255717676892e+00  1.2202673748732655e+00  1.1968775422175759e+00  1.3618614117609258e+00  1.1531025701658861e+00  7.8776940858158877e+00  7.9691788801504293e+00  8.3046842664630702e+00  8.8505097097700069e+00  1.0792784966600495e+01  1.2298259223871863e+01  1.1801060933417423e+01  1.1530919844840053e+01  3.3485150924167084e+00  3.6145113801030675e+00  3.5592131849760573e+00  3.3776925988291162e+00  1.1838981667708495e+01  1.2460655908775916e+01  1.1484412381205104e+01  1.1793679655322302e+01  3.3696306189890604e+00  2.8870427369273797e+00  3.3650885629120628e+00  3.1133645263782950e+00  1.2550892136651752e+01  1.2198878926270902e+01  1.2087045755251291e+01  1.1279386376626665e+01  4.7662722567795717e+00  4.0755403449264680e+00  3.8832986125841811e+00  4.3414541252096308e+00  7.7314058834343014e+00  2.2159350422662567e+00  2.0652109909467269e+00  1.5006997820095893e+00  1.7415930782031117e+00  5.5477866094079875e-01  6.0832506870182201e-01  4.7984562432487676e-01  3.1857799049059166e-01  2.9718918041203661e+00  2.5513840918582797e+00  2.8478420652685772e+00  2.4266506559638041e+00  2.7292561699065043e+00  3.8966781075085222e+00  3.4061806374926391e+00  4.3642929548132186e+00  3.5950957370661456e+00  5.4944368202687972e+00  6.4963650315050074e+00  6.3542232211354257e+00  6.0830255890392015e+00  7.8813760980129377e-01  6.6752818808448222e-01  5.6948366189421418e-01  1.0938637673363150e+00  1.3942488765792325e+01  1.4784337883251478e+01  1.3851530232512685e+01  1.3109772757507253e+01  3.5124701408221655e+00  3.3410911899112725e+00  3.7852073931598005e+00  1.0528305787410487e+01  1.0542083302449129e+01  1.0783357630787428e+01  9.5857864370828807e+00  1.0625139050887544e+01  9.7624814452537834e+00  1.0501386731221805e+01  9.5788075360030760e+00  1.3684432260169784e+01  1.3927538969684855e+01  6.9211967832093324e-01  5.0461006172743939e-01  7.6519376485093960e-01  1.2460812273671809e+00  1.3827493689341324e+00  1.4146241343018890e+00  9.9493009513276098e-01  2.3410702334080560e-01  9.2832464524167380e-03  2.2087724317820800e-03  2.8284902812964802e-01  1.2295591220847596e+01  1.2186437743216901e+01  1.2744810744453540e+01  1.3100732778466700e+01  1.2216757242770496e+01  1.1867420326076303e+01  1.3401539156899096e+01  1.2994804638079753e+01  7.1157889004019514e-01  4.4496636567226061e-01  5.0571762202424642e-01  7.0842558940085798e-01  1.0936254107054223e+01  1.1021505439014938e+01  1.0968889161728510e+01  9.7593063923307497e+00  5.2281309685130744e+00  4.6118385522374474e+00  4.8276086889429592e+00  5.3585930946802867e+00  3.2109570890473433e+00  3.6320466435897090e+00  3.2444111566997358e+00  7.1551352806072996e+00  8.3271895867311301e+00  7.8546658248065135e+00  7.8237946986851785e+00  8.2354058426061982e-01  8.7366747441883341e-01  1.0589314923355946e+00  1.0448967022624773e+00  1.2983013648110266e+01  1.2861320192804543e+01  1.3159581380734808e+01  1.3951176183392681e+01  1.3751980481249147e+01  1.2475873692494234e+01  1.2866781881485506e+01  2.2726463765583769e+00  1.9172481246268946e+00  1.6179897294835839e+00  1.9851186978500925e+00  8.2979540454848644e-01  7.3870125365571238e-01  8.6298921942825357e-01  1.0475978326561362e+00  1.0458663660809432e+01  1.0549167937970410e+01  1.0776481897892801e+01  1.1508505202041931e+01  5.3350566310595315e+00  5.8394317167487060e+00  4.8533805057237247e+00  4.9653803129331271e+00  1.0797621326609519e+00  1.0002743524790221e+00  1.0386026121496885e+00  9.6921824345941665e-01  7.8773134870698476e+00  7.6594033840890265e+00  6.9915863445498676e+00  8.1430278720491813e+00  9.8495709570396262e+00  1.0792089786504025e+01  1.0634515332579848e+01  1.1065616684418904e+01  4.2472519000709790e+00  3.7041034451719916e+00  1.9276320328350367e+00  2.1413127054567762e+00  2.2082248243343003e+00  2.5065944961298010e+00  6.1335244381220200e+00  5.7443958123920451e+00  6.5407331948078493e+00  6.1204182091377914e+00  1.4225683428882627e+00  1.8547518072291935e+00  1.4713150173368827e+00  1.5483207903353213e+00  3.2902172427338412e+00  3.5671187438789835e+00  2.8662940454245716e+00  2.9405823167207523e+00  8.9311233111182275e-03  1.3840907973393508e+01  1.3260724871618482e+01  5.5788085097147055e-02  6.0394599701358598e-01  6.1856433274774569e-01  7.5040969359873244e-01  5.1992631028732363e+00  5.0509803360914027e+00  4.6968216445275202e+00  5.5156597082828549e+00  1.1092934748572358e+00  1.0425968766133451e+00  1.0370750562764917e+00  1.2907375692972369e+00  1.7290367467675709e+00  1.9168175536990462e+00  1.3447923857349631e+01  1.4298537013802232e+01  6.4100228671907908e+00  7.0508479191222273e+00  7.2311139179857431e+00  6.6649901944518861e+00  3.1526035923556237e+00  3.0492816785076462e+00  3.4438411696639100e+00  1.4545037699292974e+01  1.4520994406571839e+01  1.5544392670607673e+01  3.0765286090108264e+00  3.0990094806712620e+00  2.7948593238962913e+00  2.9221343295781868e+00  3.6175283027740317e+00  3.8468730158094080e+00  3.4217755103507095e+00  5.4973920774385761e+00  5.6289502127042317e+00  6.0260078618832411e+00  5.4980764709373098e+00  1.6495891446295152e+00  1.5082273529919705e+00  1.7008160357846553e+00  9.0769267429624645e-01  1.1725755928471140e+00  1.2910053254372553e+00  7.8411291636387404e-01  1.3480614410770531e+01  1.3777621302899338e+01  1.2284417660053860e+01  4.6040080392482183e+00  4.7736829178988449e+00  5.3572937766461362e+00  5.1068570616564788e+00  4.1875538212543875e+00  3.7074131947890407e+00  3.5109464571565789e+00  3.4895853738706921e+00  3.7545447041388833e+00  3.2939509213688258e+00  3.2096462477483803e+00  2.9830189195631229e+00  1.2230279968203826e+01  1.1068133377612460e+01  1.2420237832188116e+01  1.1096037136906045e+01  3.0145026849707549e-02  3.5526588641807466e-02  2.2550795886498987e-01  8.7070449484735191e-03  7.0571831820049464e+00  6.8599831686999400e+00  7.6022636886191481e+00  6.9858225730680896e+00  3.2226737953415094e+00  2.5461171606450179e+00  2.8100257252908047e+00  2.7317683902148207e+00  1.5003706409746549e+00  1.1512068390731347e+00  1.4582150493928889e+00  7.4020619942613628e+00  8.3067507164040393e+00  7.9561085475574380e+00  2.0571402071254807e+00  1.7985378707762900e+00  2.2519953100164085e+00  2.2272345213396334e+00  1.4802812384211315e+01  1.3996579517703328e+01  2.7891577251275879e-01  2.9487470972208729e-01  7.6826867192369963e-04  8.9311233111182293e-03  6.6373686349156245e+00  6.0850244637810968e+00  6.8419488864693241e+00  6.6325774818388554e+00  5.5334248261896288e+00  5.2086808155041195e+00  5.6632382184405934e+00  4.9166797135428677e+00  1.4455545097847151e+00  5.5733403727297404e+00  6.0264208075541710e+00  6.2205431220127618e+00  1.8434897747984971e+00  2.1167612304585384e+00  2.3224198954500888e+00  2.1991312841696149e+00  2.5410329469204771e+00  1.8780360546138473e+00  1.4300523692591137e+01  1.4895049117281221e+01  1.4482204263603174e+01  1.3514788834617294e+01  1.3598935676294412e+01  1.4233864695792406e+01  1.2791264557017174e+01  1.3022278574491756e+01  2.3043031647754257e+00  2.1353875469015380e+00  1.9202135141577403e+00  6.6250480575947641e+00  7.2116417660201995e+00  6.6421024257516859e+00  1.3859085617451126e+00  1.2849730583908692e+00  1.1904557745192190e+00  1.8154938135805510e+00  1.6604874042973019e+01  1.4883791507804316e+01  2.7913422206792537e+00  2.8297956420444113e+00  3.1067439102415104e+00  2.6006417279229743e+00  2.0116326998669867e+00  1.6944689705485685e+00  1.6006690339684674e+01  1.6004129444111591e+01  1.6283752219135383e+01  1.5281319521666862e+01  3.6598616269297007e-01  3.6032517149440080e-01  1.5045261491845039e-03  9.1231904790991525e-03  1.5293221779501504e+01  1.6286555026460405e+01  1.4908312627400850e+01  1.5526242550986744e+01  2.8135632395539796e+00  2.6786607724036275e+00  2.6640146813430139e+00  3.0793995027595842e+00  5.7452225767077669e+00  4.9889560715269061e+00  5.5312522309351690e+00  5.6052810282232945e+00  6.1681887281018222e+00  5.4249988753692646e+00  6.4228169997946827e+00  5.9375224244504281e+00  5.3893064630146439e+00  5.1457215283271438e+00  9.9518850307025843e+00  1.0210192304042922e+01  1.0011336696278269e+01  1.0766954006071133e+01  1.3430702792307484e+01  1.2383976997512342e+01  1.1960239390922533e+01  1.3679372769629807e+00  1.7396885932702304e+00  1.7030995822642379e+00  1.5637053019430689e+00  1.2728927656019172e+01  1.2900845227644805e+01  1.2361442413655819e+01  2.2042186329349360e+00  2.2773503214249420e+00  2.2177294142148143e+00  1.3943862775984634e+01  1.3246636168529953e+01  1.3453469865613464e+01  1.2425635157227298e+01  2.0443931995099085e+00  1.9876398575553214e+00  1.7484940761956975e+00  1.5605175107212352e+00  1.1401424355891251e+01  1.1437228142601777e+01  1.2277685994623837e+01  1.0744173034691467e+01  1.6673778667031482e+00  5.4978097091803457e+00  6.1197353045708294e+00  5.4988617721339574e+00  6.1682860010709879e+00  1.5170964600096148e+01  1.4514309108745238e+01  1.3982728131826462e+01  1.3699272011665624e+01  2.6606655279978524e+00  2.6079930861177760e+00  2.1735541192259062e+00  8.8423668989970299e+00  8.9441003093061848e+00  8.4254825492459258e+00  8.3137150085938885e+00  3.7702310357745530e+00  3.3670543155182608e+00  3.3222307742865018e+00  3.0982830101226333e+00  1.6912330946083916e+01  1.6763550395922870e+01  1.6756896743266154e+01  1.5601624700908992e+01  4.0122741172140575e-01  4.2183702464179057e-01  2.1747802268153134e+00  2.6615415676213448e+00  3.0195660088875216e+00  4.6963837287503890e-01  4.9327426665250327e+00  5.4817129058199168e+00  4.7880969841704841e+00  5.7033724480999322e+00  3.6886318364690402e+00  3.8927200165338705e+00  3.2825647576652255e+00  5.3922821236076368e+00  4.3797898133524695e+00  5.0000734586894300e+00  9.8376971906293154e-01  8.3487529246598957e-01  9.6790559654343378e-01  2.2642459860559785e-01  9.5713472043883474e-03  4.1294441115926617e-03  2.8727340484167907e-01  1.9468054875202951e+00  2.2777613516943931e+00  2.3734190102804034e+00  6.9439568765657391e+00  5.9664026234560783e+00  6.5936309811888174e+00  1.1860020316957577e+01  1.1855024454707799e+01  1.1906537308484118e+01  8.6314552410283145e+00  6.5147092187114974e-01  6.6666818829951657e-01  6.4556946171314245e-01  8.4442288327864312e-01  6.0734815525340542e+00  5.8602277978563073e+00  6.1098020470842389e+00  5.3375154398362676e+00  2.0176095635699589e+00  2.1509648860110828e+00  1.6007490619551263e+01  1.6002881007519719e+01  1.5116138603671788e+01  1.4277724120236389e+01  1.3352337076115974e+01  1.3044745215655025e+01  1.2669652981213119e+01  1.8340661449239484e+00  2.3207781233492080e+00  1.9984554968052739e+00  7.1394031007317524e+00  6.9632426046314073e+00  7.6577843123655338e+00  3.8832268397975280e+00  3.4797741767283603e+00  3.3777580301363650e+00  3.2332144983899238e+00  1.2032375582705836e+01  1.2260939441386506e+01  1.2240388932250378e+01  1.0858598171006172e+01  2.5703886160202005e+00  2.2643502105702993e+00  2.7728340275033512e+00  1.2614126239604595e+00  1.2054024018078795e+00  6.7404864817230408e+00  6.5936287951000576e+00  6.4954745163855074e+00  5.8521021745016961e+00  5.9132418416687607e+00  6.2019538164896018e+00  1.6008273047225068e+00  1.9237117186362447e+00  1.8170122723196513e+00  7.1835807869885837e+00  7.8176099120733946e+00  7.0265664829734567e+00  1.6009411291231071e+01  1.6002881007519715e+01  1.6279553376103586e+01  1.2471203633328440e+00  1.4473347329767408e+00  1.0449298622441965e+00  1.3417110231875928e+00  9.0143879948307895e+00  9.3105025624863185e+00  9.4141398385314279e+00  1.0056976770097071e+01  1.5270662499812984e+00  1.1238676463649759e+00  1.2835108977783287e+00  1.0020391671943853e+00  5.0728469604752746e-02  7.4906195512602905e-03  2.4467792951398454e-01  7.0900128551217667e-01  7.5773957359275856e-01  6.0259946790034347e-01  7.6152964790119826e-01  1.2187475970618948e+00  1.5368299368884790e+00  1.2371396611161722e+00  1.0046134643824777e+01  1.0756088826387256e+01  1.0599920216436598e+01  9.5790674275996164e+00  3.4565711722825103e+00  1.1730598577556099e+01  1.2201448837180948e+01  1.0535198193659349e+01  1.1864685388776811e+01  1.1217566375412821e+01  4.1830432715750765e-01  3.7641565026601836e-01  6.6574789388089062e-01  5.5162813161642599e-01  1.6383689897745193e+00  2.0431156443772269e+00  1.5933398591204351e+00  1.6539043944082785e+00  1.8223847293495388e+00  1.4612918175327108e+00  1.4924315894098710e+00  3.1351054483574017e+00  3.5658116790540486e+00  3.1373020557688998e+00  1.4383484903311055e+01  1.3521453857768394e+01  1.3214456171383487e+01  1.4518872031017914e+01  7.3524350024866649e+00  6.4517594781162169e+00  7.4872624203564069e+00  6.7980612993709446e+00  1.4928505466788046e+01  1.5334206129033735e+01  1.4129328246280979e+01  1.1937818731698297e+01  1.1989807617234600e+01  9.4089968583953310e-01  8.2136329784419870e-01  8.3058948828001100e-01  7.4304238729390615e-01  5.7872209519835529e+00  6.4018243961542094e+00  6.7934836848285247e+00  1.5389188049702732e+01  1.4107429121470652e+01  5.0010876821612005e+00  4.5860189852837934e+00  4.8302372484874221e+00  5.1050179945239922e+00  1.9673901827638189e+00  2.1882790483482601e+00  9.9790079540415775e+00  9.4039645461493429e+00  9.1997984894899574e+00  9.0702507420556113e+00  8.8116122627199474e+00  5.7102963740749058e-01  4.2693099094878023e-01  8.4108075021957551e-01  5.7124590094526706e-01  1.7364927569892985e+00  1.5858445653223467e+00  1.3950166662408872e+00  7.8999176117606238e+00  7.3107994232922353e+00  7.5317198535494541e+00  7.0352269409972905e+00  8.9569078468479058e-01  7.7350046257045701e-01  6.1249619327818572e-01  5.3705053257742374e-01  7.0111154403425422e+00  7.3714379081884545e+00  6.6508037520459924e+00  6.4638307422806465e+00  1