<?xml version="1.0"?>
<VTKFile type="UnstructuredGrid"  version="0.1"  >
<UnstructuredGrid>
<Piece  NumberOfPoints="55" NumberOfCells="124">
<Points>
<DataArray  type="Float64"  NumberOfComponents="3"  format="ascii">0 1 0  0 -1 0  0 0 1  0 0 -1  4 0 1  4 -1 0  4 0 -1  4 1 0  0 0.707106779577703 0.7071067827953921  0 -0.7071067827953921 0.707106779577703  0 -0.707106779577703 -0.7071067827953921  0 0.7071067827953921 -0.707106779577703  4 -0.7071067827953921 0.707106779577703  4 -0.707106779577703 -0.7071067827953921  4 0.7071067827953921 -0.707106779577703  4 0.707106779577703 0.7071067827953921  0.9999999999976482 0 1  1.999999999994776 0 1  2.999999999997367 0 1  0.9999999999976482 -1 0  1.999999999994776 -1 0  2.999999999997367 -1 0  0.9999999999976482 0 -1  1.999999999994776 0 -1  2.999999999997367 0 -1  0.9999999999976482 1 0  1.999999999994776 1 0  2.999999999997367 1 0  0 0.2687658172239241 0.1113264469546516  0 -0.3632776934580825 -0.1504745480221339  0 0.1820395197732083 -0.4510798723263696  0 -0.1902402587217505 0.4476830150214721  1.518966646425677 -0.7148990903108838 0.6992276386647419  2.482205333411837 -0.6987038418337225 0.7154110296932782  3.244324580033718 -0.7493596623679175 0.6621631947004006  0.7556754217642816 -0.6621631932530087 0.7493596636468891  2.481033354225907 -0.7148990938406107 -0.6992276350559049  1.517794667296272 -0.6987038453743907 -0.7154110262352962  3.244324580033718 -0.6621631947004006 -0.7493596623679175  0.7556754217642816 -0.7493596636468891 -0.6621631932530087  1.518966646425677 0.7148990903108838 -0.6992276386647419  2.482205333411837 0.6987038418337225 -0.7154110296932782  3.244324580033718 0.7493596623679175 -0.6621631947004006  0.7556754217642816 0.6621631932530087 -0.7493596636468891  1.519294690259408 0.7169910765607017 0.6970823453024225  2.482046457574951 0.7166228761591933 0.6974608615293947  3.244324580033718 0.6621631947004006 0.7493596623679175  0.755675423572142 0.6621631928835726 0.749359663973337  4 -0.1113264469546516 0.2687658172239241  4 0.1504745480221339 -0.3632776934580825  4 0.4510798723263696 0.1820395197732083  4 -0.4476830150214721 -0.1902402587217505  3.101494076711887 0.02671064174872906 -0.04429986523720686  0.8975502873196286 -0.04525550120518307 -0.02440353244157281  1.901111606603393 0 0  </DataArray>
</Points>
<Cells>
<DataArray  type="UInt32"  Name="connectivity"  format="ascii">18 45 52 54  18 33 52 54  21 33 52 54  21 36 52 54  17 18 45 54  20 21 33 54  20 21 36 54  17 18 33 54  26 45 52 54  26 41 52 54  26 27 45 52  26 27 41 52  23 36 52 54  23 41 52 54  23 24 36 52  23 24 41 52  25 44 53 54  16 44 53 54  25 40 53 54  16 32 53 54  22 40 53 54  25 28 43 53  22 37 53 54  19 37 53 54  19 32 53 54  19 29 35 53  16 17 44 54  19 20 37 54  22 23 40 54  16 17 32 54  25 26 44 54  25 26 40 54  19 20 32 54  22 23 37 54  18 46 48 52  29 30 39 53  25 28 47 53  18 34 48 52  29 31 35 53  28 30 43 53  24 38 49 52  34 48 51 52  28 31 47 53  10 29 30 39  42 49 50 52  38 49 51 52  0 25 28 43  46 48 50 52  24 42 49 52  1 19 29 35  19 29 39 53  4 18 46 48  22 30 39 53  0 28 30 43  21 34 51 52  16 31 47 53  14 42 49 50  1 29 31 35  17 44 45 54  6 24 38 49  26 40 41 54  20 32 33 54  23 36 37 54  23 40 41 54  17 32 33 54  20 36 37 54  4 18 34 48  0 25 28 47  26 44 45 54  48 49 51 52  28 29 31 53  48 49 50 52  28 29 30 53  8 28 31 47  12 34 48 51  27 42 50 52  0 11 30 43  6 24 42 49  21 38 51 52  1 9 31 35  25 44 47 53  18 33 34 52  16 44 47 53  21 33 34 52  16 31 35 53  27 46 50 52  4 46 48 50  6 38 49 51  1 19 29 39  3 22 30 39  18 45 46 52  25 40 43 53  22 30 43 53  2 16 31 47  0 8 28 47  4 12 34 48  22 40 43 53  16 32 35 53  27 45 46 52  21 36 38 52  4 15 46 50  3 10 30 39  6 13 38 51  6 14 42 49  24 36 38 52  19 32 35 53  5 21 34 51  7 27 42 50  2 8 31 47  27 41 42 52  22 37 39 53  19 37 39 53  24 41 42 52  5 12 34 51  7 14 42 50  5 21 38 51  7 15 46 50  5 13 38 51  7 27 46 50  2 16 31 35  1 10 29 39  3 22 30 43  2 9 31 35  3 11 30 43  </DataArray>
<DataArray  type="UInt32"  Name="offsets"  format="ascii">4 8 12 16 20 24 28 32 36 40 44 48 52 56 60 64 68 72 76 80 84 88 92 96 100 104 108 112 116 120 124 128 132 136 140 144 148 152 156 160 164 168 172 176 180 184 188 192 196 200 204 208 212 216 220 224 228 232 236 240 244 248 252 256 260 264 268 272 276 280 284 288 292 296 300 304 308 312 316 320 324 328 332 336 340 344 348 352 356 360 364 368 372 376 380 384 388 392 396 400 404 408 412 416 420 424 428 432 436 440 444 448 452 456 460 464 468 472 476 480 484 488 492 496 </DataArray>
<DataArray  type="UInt8"  Name="types"  format="ascii">10 10 10 10 10 10 10 10 10 10 10 10 10 10 10 10 10 10 10 10 10 10 10 10 10 10 10 10 10 10 10 10 10 10 10 10 10 10 10 10 10 10 10 10 10 10 10 10 10 10 10 10 10 10 10 10 10 10 10 10 10 10 10 10 10 10 10 10 10 10 10 10 10 10 10 10 10 10 10 10 10 10 10 10 10 10 10 10 10 10 10 10 10 10 10 10 10 10 10 10 10 10 10 10 10 10 10 10 10 10 10 10 10 10 10 10 10 10 10 10 10 10 10 10 </DataArray>
</Cells>
<PointData  Scalars="U"> 
<DataArray  type="Float64"  Name="U"  format="ascii">0.0000000000000000e+00  0.0000000000000000e+00  0.0000000000000000e+00  0.0000000000000000e+00  0.0000000000000000e+00  0.0000000000000000e+00  0.0000000000000000e+00  0.0000000000000000e+00  0.0000000000000000e+00  0.0000000000000000e+00  0.0000000000000000e+00  0.0000000000000000e+00  0.0000000000000000e+00  0.0000000000000000e+00  0.0000000000000000e+00  0.0000000000000000e+00  0.0000000000000000e+00  0.0000000000000000e+00  0.0000000000000000e+00  0.0000000000000000e+00  0.0000000000000000e+00  0.0000000000000000e+00  0.0000000000000000e+00  0.0000000000000000e+00  0.0000000000000000e+00  0.0000000000000000e+00  0.0000000000000000e+00  0.0000000000000000e+00  9.0445010728203989e-01  8.2407221411417420e-01  7.5192373342269170e-01  7.4584412928459165e-01  0.0000000000000000e+00  0.0000000000000000e+00  0.0000000000000000e+00  0.0000000000000000e+00  0.0000000000000000e+00  0.0000000000000000e+00  0.0000000000000000e+00  0.0000000000000000e+00  0.0000000000000000e+00  0.0000000000000000e+00  0.0000000000000000e+00  0.0000000000000000e+00  1.1102230246251565e-16  0.0000000000000000e+00  0.0000000000000000e+00  1.1102230246251565e-16  9.1537135770040934e-01  8.4538672783331004e-01  7.6338856202276584e-01  7.6338856202276584e-01  1.0985860809344201e+00  1.0678749165800854e+00  1.1332382184136116e+00  </DataArray> 
</PointData> 
</Piece>
</UnstructuredGrid>
</VTKFile>