<?xml version="1.0"?>
<VTKFile type="UnstructuredGrid"  version="0.1"  >
<UnstructuredGrid>
<Piece  NumberOfPoints="1329" NumberOfCells="2521">
<Points>
<DataArray  type="Float64"  NumberOfComponents="3"  format="ascii">0 2 0  0 0 0  4 0 0  4 2 0  2 0 0  2 2 0  1 0 0  1 2 0  0 1 0  4 1 0  3 2 0  3 0 0  1.5 1 0  3 1 0  0.75 0.75 0  2.25 1.25 0  0.5625 1.4375 0  4 0.5 0  3.5 0 0  4 1.5 0  3.5 2 0  2.5 0 0  2.035714285714286 0.6428571428571428 0  1.5 0 0  3.416666666666667 0.5833333333333334 0  1.135869565217391 1.442934782608696 0  1.75 1.5 0  2.611201298701299 0.5693993506493507 0  3.5 1.25 0  1.25 0.5 0  2.5 2 0  2.75 1.5 0  0.5 0 0  0 0.5 0  0 1.5 0  0.5 2 0  1.5 2 0  3.196428571428572 1.589285714285714 0  1.75 0.3363095238095237 0  3.016488529250673 0.4286986695828525 0  1.075849239304906 1.022452282085282 0  2.25 0.308531746031746 0  0.4375 0.4375 0  2.375 1.625 0  0.359375 0.828125 0  0.875 0.375 0  2.579589900409902 0.9887697012297049 0  1.875 1.125 0  3.625 1.625 0  3.738095238095238 0.75 0  0.61328125 1.08203125 0  0.283203125 1.216238839285714 0  0.75 1.743055555555556 0  1.575774875167458 0.6496125624162709 0  0.30625 1.69375 0  3.677083333333333 0.3229166666666667 0  3.347222222222222 0.9305555555555556 0  2.75 0 0  1.426285733982903 1.650642866991451 0  1.441247178754399 1.322840772184865 0  3.307719501506081 0.2701504049770592 0  2.343107299193003 0.7600674782727458 0  2.041666666666667 1.666666666666667 0  0.8721051282065269 1.266059980878688 0  3.017857142857143 1.321428571428571 0  0.25 0 0  3.124094139334942 0.7176929188969303 0  2.133642051592332 0.9740738452230051 0  2.744869578259833 0.3003660856503637 0  2.795144003253926 0.7941412087465988 0  1.143043947544775 1.739786699825343 0  1.808516825619384 0.8349817990159853 0  2.006944444444445 1.388888888888889 0  2.545410099590098 1.284179800819803 0  2.625 1.75 0  1.049150760695094 0.7233015213901878 0  1.458640484663616 0.2918202423318081 0  2.938492063492064 1.718253968253968 0  1.75 2 0  1.125 0.25 0  3.708891369047619 1.042782738095238 0  3.75 1.375 0  0 0.25 0  2.785310692237909 1.162254590955012 0  1.323940624311342 0.7684841149566988 0  2.25 2 0  0.75 0 0  0.6335227272727273 0.2471590909090909 0  4 1.75 0  3.75 2 0  3.210459183673469 1.149518140589569 0  3.398166023166023 1.757722007722008 0  1.996445105820106 0.2584325396825397 0  2.75 2 0  1.25 2 0  3.25 0 0  3.75 0 0  1.25 0 0  0.75 2 0  0 1.25 0  4 0.75 0  0 0.75 0  2.25 0 0  1.75 0 0  0.25 2 0  0 1.75 0  4 0.25 0  1.669430850940762 1.75 0  4 1.25 0  3.25 2 0  2.498111965552158 0.3454883412923062 0  0.8003899450697071 1.501828266030458 0  0.2153532608695652 0.625 0  0.2412533945605322 1.457575279565611 0  1.678090669413954 1.267696889804651 0  0.2053571428571428 0.375 0  0.375 0.2050382653061225 0  1.294175302171828 1.12930909293974 0  0.835161298469517 0.9792300199580364 0  2.249446885750175 0.544013092708228 0  1.805072998422435 0.6005105219729567 0  3.420918367346939 1.48469387755102 0  0.5222222222222223 1.771527777777778 0  2.354573390699718 1.043404315840394 0  0.671875 0.515625 0  0.53515625 0.69140625 0  2.214583333333334 1.470138888888889 0  3.231892178836853 1.372190928394479 0  3.639880952380952 0.5461309523809526 0  3.51660541173964 0.7838766379034835 0  3.210840504937081 0.5208629907674649 0  2.950588740601899 0.2165668709345833 0  2.815233623969196 0.5030491785795254 0  1.083528949974407 1.235881015826932 0  2.585211668467502 0.778316879153453 0  3.143120343375446 1.805089893100097 0  0.9896521505025003 1.594981251830706 0  1.87957996989704 1.815676662903797 0  1.626600058535864 0.1681547619047618 0  2.953373015873016 1.514880952380952 0  0.2220850766736066 1.002711978499359 0  0.4224260205797096 1.01898022942029 0  0.5986328125 0.8818359375 0  2.375 0.154265873015873 0  0.8212256493506493 0.1845914502164502 0  3.8125 1.5625 0  3.78125 1.78125 0  1.0625 0.4375 0  0.8671875 0.5807291666666666 0  2.4375 1.8125 0  2.22275641025641 1.78525641025641 0  2.539794950204951 1.494384850614852 0  2.059027777777778 1.197916666666667 0  1.704515975736352 1.011452072790943 0  0.9470212454254227 1.801453052498988 0  1.918017502100738 0.4391265981339625 0  1.375 1.84391955596417 0  2.594123205043675 0.1732636966881334 0  1.611497372532367 0.8407251842095733 0  3.586538895025134 1.821085722175172 0  2.384120800622756 1.384496213629809 0  3.508505519670329 1.049676104119021 0  0.1820540335558793 0.1820974550765656 0  1.450689899973606 0.4924930565216958 0  2.969389279592704 0.610766185970977 0  3.479636682219977 0.3858866822199769 0  3.484790611891776 0.1926780268286212 0  3.125 0.1424398309976598 0  3.858534946236559 0.375 0  3.815049380551659 0.1843794300170415 0  2.8153725923641 0.9788695978190264 0  0.1761290113871636 0.8054315476190477 0  3.824210042675814 0.5563956403663389 0  2.427629910979513 0.5950983296204954 0  0.4637895652744943 1.595039565274494 0  0.1353316326530613 1.625 0  3.869047619047619 0.875 0  1.249564973844784 0.9439888838553999 0  2.125 0.1309601694653478 0  0.6730905143458559 1.271937037763694 0  0.4758841466846654 1.259926649442542 0  1.375 0.1311248731373872 0  0.6473533488434536 1.595737086442022 0  1.662034256815698 0.4924865966265944 0  3.869672512075917 1.125 0  1.832390038253737 0.1681547619047619 0  1.251129743036335 1.588661803950864 0  1.593890444587146 1.587672319401741 0  2.09822870286213 0.4099774202448945 0  0.3672041804298913 1.863236482119776 0  3.175675638845282 0.9756004164486307 0  3.312917483130068 0.7431390521815694 0  1.949346764610204 0.9553275675867292 0  0 1.875 0  0.125 2 0  0.1697704081632653 1.8125 0  1.250217015798098 1.303886758833925 0  1.835950419976561 1.346112776751352 0  0.9599823676558117 1.420119779128127 0  3.593112244897959 1.45280612244898 0  2.056540224487935 0.8167847786318049 0  1.813391518603679 1.658412378406144 0  2.717540968022779 1.325887924832463 0  2.875 2 0  2.790782176324345 1.823358911837828 0  2.96559571976349 0.7816340462561718 0  1.291066125893253 0.2769264367112843 0  2.058790178805516 1.838077939017356 0  3.673332592838314 1.215834814323372 0  0.9071956592137768 0.8220343607442596 0  0.1310120797546304 1.144290287522608 0  1.913874615570387 1.526312479062075 0  3.167986306711986 0.3602294831961773 0  1.587529998678765 1.414932407001446 0  3.649130568669384 0.1571119266068894 0  2.438436537601556 0.8981101131576004 0  2.184935068055161 0.7132002379880827 0  1.456235642937205 1.158801966988924 0  1.386503074512992 1.484584638506796 0  0.3737834792371778 0.6652885804478 0  2.762778993639535 1.662639496819767 0  0.650390625 1.871527777777778 0  3.64596729502979 0.8886584698474683 0  3.045611599070008 1.158676339734206 0  0.3993538884374467 1.407167403628448 0  0.1516836018189417 1.317691898227368 0  2.359232411156304 0.4265296413185397 0  0.9610399745072515 1.13343594717961 0  0.7717402898146146 1.133192846304489 0  2.196179339444516 1.628280977501045 0  3.374466497724555 1.144327478293632 0  3.102333217040289 1.462470750260982 0  0.9845991046279567 0.1639504476860216 0  4 1.875 0  1.536737024305362 1.842483914655334 0  2.494398952860155 1.128595263390141 0  3.375 0 0  1.35480793550772 0.615559550979754 0  1.200028215648868 0.6638952964742415 0  2.868522658058045 1.379123954802417 0  3.32987895819658 0.4227871628526512 0  2.886186525788335 0.3528756827196673 0  2.804013819276893 0.1511494444935829 0  2.680690785851866 0.4362020186265224 0  1.110915716469613 0.8685559166680689 0  2.214722448960161 1.102379401681194 0  2.276771166733366 0.9046523967228255 0  1.706689197955897 0.724037154727565 0  1.903015710979854 0.7163329050691327 0  1.077254105049741 1.873044405931742 0  1.477182186374218 0.7669362764052622 0  1.604355390029422 0.3138347014223712 0  3.357298773015283 1.292121771221682 0  2.642456732564144 1.122937069483146 0  2.827183673783701 0.6501131617032385 0  1.39080974675033 0.9003338946919665 0  0.2971222383134333 0.4965306658562274 0  2.693907172777001 0.8986988520891301 0  2.931442998585418 1.86469249778093 0  1.59630857010951 1.111973263442358 0  3.077810808817073 1.674470823983352 0  1.080472523982749 0.5815519813637883 0  3.088890913835956 0.8588454627236115 0  3.284214600296659 1.854479326042458 0  1.2873402129058 1.728774218841188 0  2.916284554441128 1.220364572692797 0  0.8761001761669315 1.679172777133284 0  1.219550944192924 1.860427700898438 0  0.5165446672830528 0.1507081055534605 0  0.4929450837918542 0.2984926303907968 0  0.6053481855006131 0.388156428045367 0  1.227260448811456 0.1448802244057281 0  2.074781746031746 1.521468253968254 0  2.128472222222222 1.319444444444444 0  0.8190857636454005 1.871527777777778 0  1.19016415713109 0.373667921434455 0  2.522705049795049 1.642089900409902 0  2.5625 1.875 0  1 0.3125 0  3.875 1.4375 0  3.854421179608893 1.271342359217786 0  3.875 2 0  3.252895074367309 1.717720366266284 0  3.339445936751456 1.603038018552652 0  3.482215988057832 1.614109768761893 0  2.408003729780754 1.243076190508459 0  3.355663254605069 0.1386374657746271 0  0.625 0 0  3.739816599856081 0.4464807305048627 0  2.696925297991427 0.6967143210263376 0  0.757236016824085 0.3054607560999607 0  0.6975123597992916 0.1262897850255805 0  0.4720121406356337 0.5699592728324485 0  3.225246433696271 0.8481228132984594 0  1.125 0 0  2.89659551396994 1.086340780676388 0  1.346838689382765 0.4025104968201652 0  2.642655346118954 1.581127295477506 0  1.932279840451773 1.249120455579388 0  3.614646585703633 0.6838796340683926 0  1.999851510882803 1.078582430205837 0  3.482702798370208 0.915866649908966 0  2.375 2 0  3.87890625 1.68359375 0  1.625 2 0  2.3125 1.882970962495216 0  3.375 2 0  3.464431439753666 1.872409772100032 0  0.6980343576336376 1.408315550915699 0  1.749733229779213 1.862103198238473 0  1.544067453618565 1.709598311018302 0  0 0.875 0  0.965720627350754 0.9439557990646738 0  3.869047619047619 0.6922933184737153 0  0.3319230122900195 1.559653568182637 0  1.12082253924467 1.609679379325029 0  1.790992128889725 0.4704419735463063 0  3.875 0 0  4 0.125 0  3.07437350968417
[...]
<PointData  Scalars="U"> 
<DataArray  type="Float64"  Name="U"  format="ascii">0.0000000000000000e+00  0.0000000000000000e+00  0.0000000000000000e+00  0.0000000000000000e+00  -4.0000000000000000e+00  -4.0000000000000000e+00  -3.0000000000000000e+00  -3.0000000000000000e+00  1.0000000000000000e+00  9.9402771015369740e-01  -3.0000000000000000e+00  -3.0000000000000000e+00  -2.7495035051259626e+00  -2.0026625955458623e+00  -1.4994878015274880e+00  -2.9998802362198074e+00  -1.1242569854582993e+00  7.4428717899248598e-01  -1.7500000000000000e+00  7.3776408343803002e-01  -1.7500000000000000e+00  -3.7500000000000000e+00  -3.1264378250042530e+00  -3.7500000000000000e+00  -1.1686951647106762e+00  -2.4492051275553224e+00  -3.1865809210143068e+00  -2.8130918817089912e+00  -8.1737660983604510e-01  -2.6876947958256676e+00  -3.7500000000000000e+00  -2.6892310956914551e+00  -1.7500000000000000e+00  7.5000000000000000e-01  7.5000000000000000e-01  -1.7500000000000000e+00  -3.7500000000000000e+00  -1.9186483848694009e+00  -3.3765222644155530e+00  -2.2941867386883037e+00  -2.1462478126447038e+00  -3.4137964226628914e+00  -8.7554836620411935e-01  -3.2504921226057220e+00  -3.3823701253479155e-01  -2.1249123871757285e+00  -2.6655341859564943e+00  -3.0004283481086209e+00  -7.5835444811913244e-01  -4.5486056047954512e-02  -1.0838319644468390e+00  -9.8550423018323077e-02  -1.9900017165708177e+00  -2.9427257050753108e+00  -6.1356978965174458e-01  -6.4959818015398541e-01  -1.1927521493283348e+00  -3.4375000000000000e+00  -3.0937606447394779e+00  -2.7921589417142219e+00  -1.8243734480822973e+00  -2.9398159438586879e+00  -3.4430757309978626e+00  -1.7986395780713464e+00  -2.0696030301093247e+00  -9.3750000000000000e-01  -1.8187767820653904e+00  -2.9832902350571562e+00  -2.9344399269938735e+00  -2.4121101364446642e+00  -2.8137119457583144e+00  -2.9916527689017722e+00  -3.1512186326620637e+00  -2.7837166314516946e+00  -3.1727549164930200e+00  -2.1723086971720194e+00  -3.2077050893024150e+00  -2.6370632940820875e+00  -3.9375000000000000e+00  -2.7956148017093931e+00  -8.7253714591558507e-02  -8.6538142296578455e-02  4.3750000000000000e-01  -2.4105919412701668e+00  -2.5964563442533386e+00  -3.9375000000000000e+00  -2.4375000000000000e+00  -1.6995465339642095e+00  4.1098479143762440e-01  -9.3750000000000000e-01  -1.5600895630518057e+00  -1.6229654330004744e+00  -3.5488233183541293e+00  -3.4375000000000000e+00  -3.4375000000000000e+00  -2.4375000000000000e+00  -9.3750000000000000e-01  -3.4375000000000000e+00  -2.4375000000000000e+00  9.3750000000000000e-01  9.3211947933511075e-01  9.3750000000000000e-01  -3.9375000000000000e+00  -3.9375000000000000e+00  -9.3750000000000000e-01  4.3750000000000000e-01  4.3009870394682725e-01  -3.4534619231391752e+00  9.2944547655130705e-01  -2.4375000000000000e+00  -3.1793416173018225e+00  -1.8124583673107848e+00  4.4639808529249925e-02  -1.1569118788395104e-01  -2.9669629262639359e+00  -1.7019056616220266e-01  -9.9070766422077328e-01  -2.5190086361310779e+00  -1.6433866740618828e+00  -3.1456516218767221e+00  -3.1223171989774277e+00  -1.2203817367783134e+00  -1.4115510176626105e+00  -2.8771284099679830e+00  -1.4705136581292413e+00  -9.4979484366060596e-01  -3.1764785223683587e+00  -1.6244044558312141e+00  -5.2088232674609403e-01  -7.5094706803883016e-01  -1.7648881837321500e+00  -2.7099731428556657e+00  -2.5832660918101147e+00  -2.2153285996456034e+00  -2.7077069579889947e+00  -2.3428679759406617e+00  -2.3331127452343936e+00  -3.6502496103853259e+00  -3.5518666228814317e+00  -2.3575747290938187e+00  1.6073743085848935e-01  -5.1248752204154557e-01  -1.0492846195372878e+00  -3.5746685187408143e+00  -2.2745506980439090e+00  -4.4182174771715925e-02  -4.5111642292068460e-01  -2.4370531090260741e+00  -1.8930554195766993e+00  -3.4687887002795899e+00  -3.5672564698004745e+00  -2.9542847472861031e+00  -3.0363050830140876e+00  -2.9123204918099690e+00  -2.5339010289458757e+00  -3.3077406502426259e+00  -3.3212885680352286e+00  -3.3302977818933477e+00  -2.8745551886567560e+00  -1.1622634145331192e+00  -3.0008560945627338e+00  -7.3142636022468788e-01  -3.6344786156197539e-01  -2.9553433777064617e+00  -2.2128787624603192e+00  -1.1888410133429390e+00  -1.4473324077335734e+00  -2.4705400034784537e+00  5.9261775061345882e-02  -3.7606451320947193e-01  -2.3373223057854342e+00  2.8785826556165467e-01  1.2617195221750588e-01  -2.9813122275855926e+00  -9.9396667926160676e-01  8.6159461071672161e-02  4.7270602732431544e-01  -2.4390952054826043e+00  -3.7378229249602977e+00  -1.3133151389302340e+00  -7.4443298350179432e-01  -3.3634593040608758e+00  -1.5253363838032730e+00  -3.1433856386824099e+00  4.7308824006771599e-01  -3.6636588369982959e+00  -2.7849815275447116e+00  -3.1811348636224892e+00  -3.3386770079909351e+00  -1.0790510709189929e+00  -1.6211007688248176e+00  -1.3452040665951679e+00  -2.9995934531288775e+00  2.3437500000000000e-01  -4.8437500000000000e-01  -3.1028450401933994e-01  -2.5303348634423837e+00  -3.0930672390106602e+00  -2.0952953417323079e+00  -6.7488044225153143e-01  -3.0302554468828142e+00  -3.3990706079597621e+00  -2.5932703749126693e+00  -3.2343750000000000e+00  -3.0539464934863467e+00  -2.1169725980503298e+00  -3.0191546435213170e+00  -3.6989020440858535e+00  -2.5370600974860685e-01  -1.8380548652701436e+00  4.7266477197417828e-01  -3.2690460228276410e+00  -2.0458130708683631e+00  -3.0024842760443087e+00  -9.9254325904905971e-01  -2.8182349340055599e+00  -3.0483577878389729e+00  -2.7301237320629941e+00  -2.8579300603103697e+00  -4.6757194276639541e-01  -2.8580836033145198e+00  -1.9390167974592931e+00  -3.0741127682475095e-01  -1.9341543077596788e+00  -6.0343487788091243e-01  3.1526633965284545e-01  -3.2001791647721944e+00  -1.9388161067937721e+00  -1.5099136822704109e+00  -3.3572148404354381e+00  -1.1359396742597172e+00  -2.0010905632532143e+00  -2.6679464910962123e+00  1.6278951293180594e-01  -3.4947641514051266e+00  -2.7724903156255887e+00  -2.1093750000000000e+00  -2.7312199735656555e+00  -2.4727924850488572e+00  -2.3912982137267811e+00  -1.5662344153504280e+00  -2.6339759875503352e+00  -3.0741765241640091e+00  -2.8559012935461667e+00  -2.2265805935176832e+00  -2.9656324927788438e+00  -2.9326622215760398e+00  -2.9894684686593749e+00  -3.0705067761866349e+00  -2.9105742896488276e+00  -2.7803265521039431e+00  -3.3129144854241974e+00  -1.2478574701683569e+00  -2.6027795969635403e+00  -2.4396937685771931e+00  -2.6394462499511664e+00  -3.5431956758895922e-01  -2.5296098054572704e+00  -2.8812958321384268e+00  -2.8492673500903716e+00  -2.2942185140682212e+00  -2.3303039910664349e+00  -1.8370833051114459e+00  -2.0831044428216536e+00  -3.0231885606432831e+00  -2.2121436804226553e+00  -2.1982649616479581e+00  -3.1318504960283122e+00  -1.5197577016046637e+00  -1.2209595861588276e+00  -1.4288090331993690e+00  -3.1332632152236974e+00  -3.2665179134610738e+00  -3.0862790994957741e+00  -2.3652344023617666e+00  -2.7358208341991519e+00  -3.1396783100914289e+00  -3.4494237347173695e+00  -2.4728336571336826e+00  3.1367929452846227e-01  3.5607915726682104e-01  -4.8437500000000000e-01  -1.9483890316375365e+00  -1.5737629683502190e+00  -1.1862252355181122e+00  -2.8930059453158878e+00  -1.9052071686259431e+00  -2.1093750000000000e+00  -2.8295769489919881e-01  -2.6064714121619641e+00  -1.9370756506826119e+00  -2.0667779690916217e+00  -8.5085568742887530e-01  -1.5244234157384382e+00  -3.2343750000000000e+00  -2.2059936066435482e+00  -2.9294529295029204e+00  -2.9250695761580738e+00  -3.0576927569340864e+00  -4.9792456756901599e-01  -3.0064429977417833e+00  -8.1305595091949434e-01  -3.8593750000000000e+00  4.4490312640789668e-02  -3.8593750000000000e+00  -3.6821543044433303e+00  -2.1093750000000000e+00  -1.6190086851621406e+00  -1.4708706518045216e+00  -3.6811347364273344e+00  -3.2966907848515201e+00  9.8437500000000000e-01  -1.9331658216391430e+00  3.9379096701999522e-01  -5.3083938709300182e-01  -2.5992636935928424e+00  -3.2366187069882164e+00  -4.8437500000000000e-01  2.2028400423573175e-01  -2.3859280939406826e+00  -3.0442212265738893e+00  -3.7578012909186738e+00  -3.4972477102994723e+00  -3.4843380615088630e+00  -1.7842063155030832e+00  -1.3540081709327787e+00  -1.9630817100177387e+00  -2.9525994296830405e+00  -4.8437500000000000e-01  2.3437500000000000e-01  -2.7343750000000000e+00  5.2621420870482138e-01  -1.3068544904599049e+00  -1.5650554523982179e+00  -3.4362507983127086e+00  -2.6490939706457857e+00  -2.9720702828589025e+00  -3.6975257941733788e+00  -3.1100354119711735e+00  -3.3472022169224540e+00  -3.9843750000000000e+00  1.2444982630986413e-01  -5.3712759435890323e-01  5.0900431326457196e-01  -3.2343750000000000e+00  -2.1093750000000000e+00  -1.3593750000000000e+00  9.8437500000000000e-01  -3.9843750000000000e+00  9.7783141238318505e-01  -3.6093750000000000e+00  8.5376492953898186e-01  9.8024234185260151e-01  6.0431825170833209e-01  -2.7343750000000000e+00  -3.6093750000000000e+00  -3.6093750000000000e+00  -3.8593750000000000e+00  -3.8593750000000000e+00  -3.9843750000000000e+00  -3.9843750000000000e+00  -2.7343750000000000e+00  -1.3593750000000000e+00  6.0937500000000000e-01  8.5937500000000000e-01  -1.3593750000000000e+00  6.0937500000000000e-01  -1.3593750000000000e+00  8.5937500000000000e-01  -3.2343750000000000e+00  -2.7343750000000000e+00  -3.6093750000000000e+00  8.5073102667050904e-01  5.9284801965772005e-01  4.6772202655196421e-01  -2.6088790184644806e+00  -2.1690678225098550e+00  -1.0170091544661839e+00  -2.8588832188731872e+00  -1.8207780123833432e+00  -1.5691866722302812e+00  -4.6060677700502073e-01  -1.8058397867487967e+00  -4.0968064333491505e-01  -7.5023302472000797e-01  -1.3147706491818956e-01  3.6409196665899457e-01  -2.7817153559912127e+00  -1.9359657366913552e+00  -1.4747986204815871e+00  -1.5024288232003076e+00  -1.8676412061914369e+00  -3.0218126129781888e+00  -2.9586117577067572e+00  -3.0673537192800278e+00  -2.3548641617197323e+00  -2.6433394026341119e+00  -2.8358264233659418e+00  -9.5553651484840685e-01  -1.0113796108639604e-01  -3.3235060551516469e+00  -2.1531591666797878e+00  -2.6819859112335522e+00  -2.8292434158871598e+00  -2.6136717752214227e+00  -3.2351622938891889e+00  -7.9550175606406515e-01  -5.2768179745341115e-01  -3.0842069053174823e+00  1.2702723733293866e-01  -8.4555090696558854e-01  -2.7737201652949001e-01  -2.9967926049343188e+00  -2.3641921015484000e+00  -3.7624125205639314e+00  -3.0556340168565308e+00  -3.1296036161095881e+00  -3.2809330280342093e+00  -3.1696613787451549e+00  -3.0359222362217118e+00  -2.4244572799894208e+00  -3.1555752781747826e+00  -5.6175988381098285e-01  -2.1563033815639447e+00  -3.3352419061234806e+00  -1.0760942160383025e+00  8.9966092042166157e-02  -1.2465744332092372e+00  -3.0099456505353062e+00  -2.7826658338162304e+00  -2.9203077835346054e+00  -1.7478199059066354e-01  -2.2417695694844135e+00  -3.2853928314020022e+00  -2.5091229557370940e+00  -1.0296131840297973e+00  -1.6399950243470511e+00  -1.6397195386421115e+00  -2.9306981124484497e+00  -2.7685839979926863e+00  -3.4070766735910536e+00  -3.3748178555663837e+00  -2.6442399210083862e+00  -9.3955561939591459e-01  -7.9304456787681921e-01  -2.9054642874952745e+00  -1.5662760885085647e-01  -1.5118481521202753e+00  -1.1412451788462317e+00  -2.4094481897620463e+00  -1.0186850459501582e+00  -1.7459330806609861e+00  -7.6395074561482845e-01  -8.6312196773199201e-01  -8.6944865067422561e-01  -1.0674295941322340e+00  -3.0196065248174575e+00  -2.8734223361087308e+00  -1.0526447107336996e+00  -3.5620833194154273e+00  -3.0763991032299929e+00  -3.2315241859549091e+00  -1.2774082904248774e+00  -1.1644737148764326e+00  -3.0189276961056346e+00  5.5170162031974068e-01  2.0084914363007467e-02  -2.2364243984829875e+00  -3.3995456780417515e+00  -3.4285635495366074e-01  -7.6252596277389473e-01  -3.5764918547760987e+00  -3.8219687664790469e+00  -2.3838216713338403e+00  -4.2123128374588925e-01  -2.8430615318872468e+00  -1.4034575074421900e+00  -5.5644217537123897e-01  -3.4982423103485152e+00  -2.6367661548080243e+00  1.2631327564027425e-01  -2.9949273648522712e+00  -3.2975365517039732e+00  -2.4158969269808130e+00  -2.5372265687614668e+00  -2.0375300003660586e+00  -2.4622848452021682e+00  -2.7475332918701549e+00  -3.6588766896651270e+00  -2.1821087320386567e+00  -2.0383103417345461e+00  -2.1336615785897926e+00  -3.5354799775730323e+00  -2.1073611390654428e+00  -4.2335441009975477e-01  -2.6503315385997057e+00  -2.0799594439772018e+00  -2.3240666365834692e+00  -2.5557324535527330e+00  -2.6667677559241452e+00  -3.6436336121582467e+00  -3.1660543032803115e+00  -2.0394774373207762e+00  -3.4608769970693669e+00  -3.7416045921678829e+00  -2.4854828466536882e-01  -3.1297741888029211e+00  -1.6973602581368761e+00  -2.4766078795189057e+00  -1.8901134039781560e+00  -1.5155532582640943e+00  -2.9454186923716139e+00  -2.7662701474954465e-01  -2.6946399417338107e-01  -4.2313066652028153e-01  -2.7356546303229723e+00  2.8385633122451631e-01  -1.2635181705098615e+00  -1.3989925617393166e+00  -1.3099135251217642e+00  6.1825684527990157e-02  4.8938063606362497e-01  -2.9270279359574256e+00  -2.8417259834347850e+00  -5.5307291276733217e-01  -2.4174523322951749e+00  -2.2367674557034580e+00  -3.0052751638826525e+00  -6.7518598838736454e-01  -1.2701148485475200e+00  -1.5891348142146886e+00  -2.3098181208768103e+00  -3.5711816022361629e+00  -1.3266634942160804e+00  -2.5725832183080688e+00  1.0888120854425946e-01  -2.8244824140819196e+00  -3.0790980878595753e+00  -1.0465154116675655e+00  -1.2932894363369456e+00  -2.2800729920314615e+00  -3.1141043488780946e+00  -1.7808676571778608e+00  -1.1518833296673239e+00  -3.3761358979379161e+00  -3.5261342111288578e+00  -1.0626312226045811e+00  -1.7217286852574440e+00  -1.4059480379089500e+00  -7.5053438893631741e-01  -3.4995944937997527e+00  8.1336254909250172e-02  -2.3745000559979887e+00  -3.0104363183612231e+00  -3.0845402111506393e+00  -2.3622117698366609e+00  -2.5821678003103949e+00  -1.5175416035008322e+00  -6.7426224613786362e-02  3.3805342680708578e-01  -3.6017923029363828e+00  -3.2885340012734270e+00  -2.6118794287801412e+00  -2.5194448020441422e+00  -3.3806150441125489e+00  -1.5995148062632922e+00  -3.4003092802279689e+00  -8.5583891881158358e-01  -3.0510444127491017e+00  -3.1698428014933442e+00  -2.5121330801655608e+00  9.8649090454474529e-03  1.2102841576461879e-01  -3.3534166556757961e+00  -8.7604709000021941e-01  -3.1126174679362721e+00  -3.2280452742264942e-01  -7.6399476806306055e-01  -2.7266773828026585e+00  -2.8817984762914390e+00  -5.6004487127588987e-01  2.9868316747066269e-02  -1.4112546320185786e+00  -1.2132107906290117e+00  -3.2202222311626771e-01  -1.7376690745538506e+00  -3.7944490479073623e+00  -1.6183030641137603e+00  -2.9057451194847856e+00  -1.8161345690968461e-01  -2.8317690147539207e+00  -2.7457441686559365e+00  -1.8150398480036543e+00  -1.8156897008378620e-01  -8.5968549916331727e-01  -2.3021910354752708e+00  -6.7289893176229931e-01  -1.4276474118501128e+00  -2.2819362555968881e+00  -2.9829053423722844e+00  -6.3732355233434623e-01  -1.9017266593747613e+00  -3.3305478666379602e+00  6.6177630479545135e-01  -1.9820203258820528e+00  3.1281616655081984e-01  4.7464360959933133e-01  -2.1050001300676655e-03  -2.3983234631778694e+00  -2.1801077392308224e+00  -2.0201976365326475e+00  -3.8688744874692475e-02  -3.2360811972221670e+00  -2.7186913756016806e+00  -2.9217969856774682e+00  -3.6166001335821845e+00  -3.5170600534296197e+00  -3.6199315919180259e+00  -3.8223761176797990e+00  -3.8167946758788118e+00  -8.3307789616796757e-01  -6.6118562288126803e-01  -7.4142297125180401e-01  -7.8757671475187507e-01  -2.3588702014160297e+00  -2.1790297871164506e+00  -2.3354558508645784e+00  -2.8311345076448018e+00  -2.6256039373117854e+00  -2.9655007155600752e+00  -1.7991007327835602e+00  -6.1120283302900280e-01  -2.9139489474753919e+00  -3.0999913797320402e+00  -3.0122922490396692e-01  -3.2030245214548132e+00  -2.9888083907530949e+00  -2.9981532971016387e+00  -2.7123392498281635e+00  4.1647610762508336e-01  -1.7710144103809529e+00  -3.5221856087737611e+00  -3.0708600214012791e+00  -3.0720039588040651e+00  -3.0249727497618024e+00  -3.1000568790346765e+00  -2.9949018870170798e+00  -2.0931072114898031e-01  1.3751274018431381e-01  -2.5422331628373946e+00  5.8455240276435561e-01  -1.7767702357835282e+00  -2.9641346660554420e+00  -6.0547716045563349e-01  -2.8522376345795832e+00  -3.0438021674302473e+00  -3.2821939196766050e+00  -3.5559447872333672e+00  -3.3469729905686605e+00  -1.8268583810487748e+00  -3.8689888699192898e+00  -3.6235441184858024e+00  -2.4893196349638793e+00  -3.5146340631277928e+00  2.3522009372206829e-01  7.0153918155735473e-01  -2.0929979541638102e+00  -2.5147728463950156e+00  -3.1007476096760960e+00  -3.3487360653604648e+00  -1.9673550556866779e+00  -1.3057497595964784e+00  -3.6818160246168312e+00  -3.3119098963677587e+00  -3.1083627116413202e+00  -3.8410345214736776e+00  6.3659554677301600e-01  -2.6855297821464044e+00  -1.4098907821398527e+00  -1.8318018740371480e+00  -1.9512282654301842e+00  -3.1759353212661057e+00  -2.3233853052999556e+00  7.3285636466415038e-01  7.3264967870119135e-01  -3.7806885635814149e+00  -1.5368382213359574e-01  -2.6589627608309546e-01  -2.5775360703117052e+00  -3.1396848114106328e+00  -3.0323958146590364e+00  -2.0217570518247250e+00  -2.9136232809191225e+00  -1.6898196186139678e+00  -1.6592148197399446e+00  -5.3942702881088533e-01  -3.0141484328163193e+00  -3.0012123922906455e+00  -9.4653316761567996e-01  -4.0072882945251720e-01  -1.1636190806924529e+00  -3.8425648746746748e+00  2.4112521267625961e-01  5.7437436756534532e-01  -3.1072556726334519e+00  -2.1599657949676079e+00  -1.3283146549015525e+00  4.1470326220747131e-02  -1.8219700436941071e+00  -1.7679032810372568e+00  -3.0834012539239537e+00  -3.1752800803919059e+00  -2.2558790903828529e+00  -2.5391100096651087e+00  -1.7019226496017876e+00  -2.0012924659590947e+00  -1.7114444669033921e+00  -3.0859922138710929e+00  -2.9906780264597810e+00  -2.9418833685621415e+00  -2.5385166395052199e+00  -1.2944190123888495e+00  -3.6310250464573928e+00  -3.3890953460254485e+00  -3.1441078042997326e+00  -4.8938898091466132e-01  -2.8499235458630081e+00  -1.7447604068073146e+00  -3.5266436075844161e+00  -2.2773437500000000e+00  -1.4752476074621692e+00  -2.8822032776652060e+00  -2.5151589913759702e+00  -2.1629047452527139e+00  -1.9385344425374968e+00  -2.7514794556204070e+00  -2.9487871028409018e+00  -2.7795740086955161e+00  -3.2875873189238827e+00  -3.4107542691610742e+00  -2.4856603003002053e+00  2.5939949576802585e-01  -3.0696005885560109e+00  -2.2576260158332295e+00  -1.3635232949749025e+00  -2.2420426145547712e+00  -2.9065350658798210e+00  1.6279128563254552e-01  -2.8678589147598634e+00  -2.0543722230657702e-01  -2.7195330294605506e+00  -2.0947647998894650e+00  -2.5086570048716217e+00  -3.3398437500000000e+00  -3.1239379035380153e+00  -2.8738164131252746e+00  -3.1761446516130438e+00  -3.0723151211261928e+00  -1.2064184028541911e+00  -2.1717381006141823e+00  -2.8953016436032950e+00  -2.8440908632948014e+00  -2.7449647789444667e+00  -2.9520785126854725e+00  2.3576560062623439e-01  -2.4990313750303894e+00  -2.0455361759052808e+00  -1.7719934538696815e+00  -3.2177347174982449e+00  -3.1123516288245385e+00  -4.4767810126188134e-01  -2.2744703855610626e+00  -2.4541326985060352e+00  -5.7281260235793030e-01  -1.5845625512019534e-01  -8.0929951452477111e-01  -1.3994663057862009e+00  -1.3473486244652262e+00  1.3768098912346033e-01  -3.2300081204224642e+00  -3.2224170697796750e+00  -1.7296561937977270e-01  -2.2944754060623747e+00  -2.0361432806449860e+00  -2.1709611165755378e+00  -2.0634289779405450e+00  -1.6923737616138470e+00  -1.9153219760349673e+00  -1.9593517355652572e+00  -1.7547889796963467e+00  -1.6367751057714055e+00  -2.8107556120327621e+00  -1.5534130000882584e+00  -2.7028367093843420e+00  -2.6294073414270795e+00  -2.7459735825626499e+00  -2.4609375000000000e-01  -2.7598287074713674e+00  -2.8864083053911678e+00  -3.5655019934141143e+00  -2.589