<?xml version="1.0"?>
<VTKFile type="UnstructuredGrid"  version="0.1"  >
<UnstructuredGrid>
<Piece  NumberOfPoints="65" NumberOfCells="64">
<Points>
<DataArray  type="Float64"  NumberOfComponents="3"  format="ascii">0 0 0  0.0625 0 0  0.125 0 0  0.1875 0 0  0.25 0 0  0.3125 0 0  0.375 0 0  0.4375 0 0  0.5 0 0  0.5625 0 0  0.625 0 0  0.6875 0 0  0.75 0 0  0.8125 0 0  0.875 0 0  0.9375 0 0  1 0 0  1.0625 0 0  1.125 0 0  1.1875 0 0  1.25 0 0  1.3125 0 0  1.375 0 0  1.4375 0 0  1.5 0 0  1.5625 0 0  1.625 0 0  1.6875 0 0  1.75 0 0  1.8125 0 0  1.875 0 0  1.9375 0 0  2 0 0  2.0625 0 0  2.125 0 0  2.1875 0 0  2.25 0 0  2.3125 0 0  2.375 0 0  2.4375 0 0  2.5 0 0  2.5625 0 0  2.625 0 0  2.6875 0 0  2.75 0 0  2.8125 0 0  2.875 0 0  2.9375 0 0  3 0 0  3.0625 0 0  3.125 0 0  3.1875 0 0  3.25 0 0  3.3125 0 0  3.375 0 0  3.4375 0 0  3.5 0 0  3.5625 0 0  3.625 0 0  3.6875 0 0  3.75 0 0  3.8125 0 0  3.875 0 0  3.9375 0 0  4 0 0  </DataArray>
</Points>
<Cells>
<DataArray  type="UInt32"  Name="connectivity"  format="ascii">0 1  1 2  2 3  3 4  4 5  5 6  6 7  7 8  8 9  9 10  10 11  11 12  12 13  13 14  14 15  15 16  16 17  17 18  18 19  19 20  20 21  21 22  22 23  23 24  24 25  25 26  26 27  27 28  28 29  29 30  30 31  31 32  32 33  33 34  34 35  35 36  36 37  37 38  38 39  39 40  40 41  41 42  42 43  43 44  44 45  45 46  46 47  47 48  48 49  49 50  50 51  51 52  52 53  53 54  54 55  55 56  56 57  57 58  58 59  59 60  60 61  61 62  62 63  63 64  </DataArray>
<DataArray  type="UInt32"  Name="offsets"  format="ascii">2 4 6 8 10 12 14 16 18 20 22 24 26 28 30 32 34 36 38 40 42 44 46 48 50 52 54 56 58 60 62 64 66 68 70 72 74 76 78 80 82 84 86 88 90 92 94 96 98 100 102 104 106 108 110 112 114 116 118 120 122 124 126 128 </DataArray>
<DataArray  type="UInt8"  Name="types"  format="ascii">3 3 3 3 3 3 3 3 3 3 3 3 3 3 3 3 3 3 3 3 3 3 3 3 3 3 3 3 3 3 3 3 3 3 3 3 3 3 3 3 3 3 3 3 3 3 3 3 3 3 3 3 3 3 3 3 3 3 3 3 3 3 3 3 </DataArray>
</Cells>
<PointData  Scalars="U"> 
<DataArray  type="Float64"  Name="U"  format="ascii">0.0000000000000000e+00  -6.7299929522548679e-02  -1.3653113618511370e-01  -2.0735260680987103e-01  -2.7942592147342366e-01  -3.5241656801102600e-01  -4.2599523632529451e-01  -4.9983908626975726e-01  -5.7363298343556191e-01  -6.4707069783069737e-01  -7.1985606118176693e-01  -7.9170407938213005e-01  -8.6234199742818618e-01  -9.3151031499729020e-01  -9.9896375159529327e-01  -1.0644721609083982e+00  -1.1278213946036728e+00  -1.1888141163082935e+00  -1.2472705668357722e+00  -1.3030292818985527e+00  -1.3559477635359281e+00  -1.4059031062852829e+00  -1.4527925787305027e+00  -1.4965341604778837e+00  -1.5370670338477757e+00  -1.5743520286472008e+00  -1.6083720173293097e+00  -1.6391322566808149e+00  -1.6666606709454448e+00  -1.6910080700323129e+00  -1.7122482952193920e+00  -1.7304782835938750e+00  -1.7458180414246955e+00  -1.7584105157900032e+00  -1.7684213531349355e+00  -1.7760385330607789e+00  -1.7814718655892916e+00  -1.7849523404431753e+00  -1.7867313175651645e+00  -1.7870795491845430e+00  -1.7862860252409523e+00  -1.7846566358894447e+00  -1.7825126471235879e+00  -1.7801889882379913e+00  -1.7780323528677568e+00  -1.7763991186374068e+00  -1.7756530939612420e+00  -1.7761631041857118e+00  -1.7783004329681007e+00  -1.7824361384536507e+00  -1.7889382673495262e+00  -1.7981689933013629e+00  -1.8104817089600553e+00  -1.8262181036904654e+00  -1.8457052609344531e+00  -1.8692528107223731e+00  -1.8971501736671714e+00  -1.9296639329253225e+00  -1.9670353700383678e+00  -2.0094781992651769e+00  -2.0571765329854510e+00  -2.1102831080262314e+00  -2.1689177993815401e+00  -2.2331664438256644e+00  -2.3030799914446503e+00  </DataArray> 
</PointData> 
</Piece>
</UnstructuredGrid>
</VTKFile>