<?xml version="1.0"?>
<VTKFile type="UnstructuredGrid"  version="0.1"  >
<UnstructuredGrid>
<Piece  NumberOfPoints="65" NumberOfCells="64">
<Points>
<DataArray  type="Float64"  NumberOfComponents="3"  format="ascii">0 0 0  0.0625 0 0  0.125 0 0  0.1875 0 0  0.25 0 0  0.3125 0 0  0.375 0 0  0.4375 0 0  0.5 0 0  0.5625 0 0  0.625 0 0  0.6875 0 0  0.75 0 0  0.8125 0 0  0.875 0 0  0.9375 0 0  1 0 0  1.0625 0 0  1.125 0 0  1.1875 0 0  1.25 0 0  1.3125 0 0  1.375 0 0  1.4375 0 0  1.5 0 0  1.5625 0 0  1.625 0 0  1.6875 0 0  1.75 0 0  1.8125 0 0  1.875 0 0  1.9375 0 0  2 0 0  2.0625 0 0  2.125 0 0  2.1875 0 0  2.25 0 0  2.3125 0 0  2.375 0 0  2.4375 0 0  2.5 0 0  2.5625 0 0  2.625 0 0  2.6875 0 0  2.75 0 0  2.8125 0 0  2.875 0 0  2.9375 0 0  3 0 0  3.0625 0 0  3.125 0 0  3.1875 0 0  3.25 0 0  3.3125 0 0  3.375 0 0  3.4375 0 0  3.5 0 0  3.5625 0 0  3.625 0 0  3.6875 0 0  3.75 0 0  3.8125 0 0  3.875 0 0  3.9375 0 0  4 0 0  </DataArray>
</Points>
<Cells>
<DataArray  type="UInt32"  Name="connectivity"  format="ascii">0 1  1 2  2 3  3 4  4 5  5 6  6 7  7 8  8 9  9 10  10 11  11 12  12 13  13 14  14 15  15 16  16 17  17 18  18 19  19 20  20 21  21 22  22 23  23 24  24 25  25 26  26 27  27 28  28 29  29 30  30 31  31 32  32 33  33 34  34 35  35 36  36 37  37 38  38 39  39 40  40 41  41 42  42 43  43 44  44 45  45 46  46 47  47 48  48 49  49 50  50 51  51 52  52 53  53 54  54 55  55 56  56 57  57 58  58 59  59 60  60 61  61 62  62 63  63 64  </DataArray>
<DataArray  type="UInt32"  Name="offsets"  format="ascii">2 4 6 8 10 12 14 16 18 20 22 24 26 28 30 32 34 36 38 40 42 44 46 48 50 52 54 56 58 60 62 64 66 68 70 72 74 76 78 80 82 84 86 88 90 92 94 96 98 100 102 104 106 108 110 112 114 116 118 120 122 124 126 128 </DataArray>
<DataArray  type="UInt8"  Name="types"  format="ascii">3 3 3 3 3 3 3 3 3 3 3 3 3 3 3 3 3 3 3 3 3 3 3 3 3 3 3 3 3 3 3 3 3 3 3 3 3 3 3 3 3 3 3 3 3 3 3 3 3 3 3 3 3 3 3 3 3 3 3 3 3 3 3 3 </DataArray>
</Cells>
<PointData  Scalars="U"> 
<DataArray  type="Float64"  Name="U"  format="ascii">0.0000000000000000e+00  -9.4916567256398132e-03  -1.9265754888943325e-02  -2.9283269624578737e-02  -3.9503032886607253e-02  -4.9882116097493510e-02  -6.0376260059670880e-02  -7.0940276160172511e-02  -8.1528465736890890e-02  -9.2095041323157031e-02  -1.0259452818600590e-01  -1.1298215095246325e-01  -1.2321419680934537e-01  -1.3324835695345116e-01  -1.4304403789888470e-01  -1.5256264090688382e-01  -1.6176781744946889e-01  -1.7062569333863903e-01  -1.7910506450326791e-01  -1.8717757157989257e-01  -1.9481785097116758e-01  -2.0200366753611040e-01  -2.0871603308839876e-01  -2.1493931251810275e-01  -2.2066132252936366e-01  -2.2587342416704473e-01  -2.3057061230713183e-01  -2.3475160524166544e-01  -2.3841893272484158e-01  -2.4157902449705448e-01  -2.4424229942572401e-01  -2.4642325073484661e-01  -2.4814052656826149e-01  -2.4941700235692682e-01  -2.5027983778156115e-01  -2.5076051386683196e-01  -2.5089484307694110e-01  -2.5072294357872682e-01  -2.5028916930276235e-01  -2.4964198618613390e-01  -2.4883378687153196e-01  -2.4792063195769939e-01  -2.4696190827515321e-01  -2.4601990272056046e-01  -2.4515927693681233e-01  -2.4444643803139440e-01  -2.4394881561585197e-01  -2.4373403095541640e-01  -2.4386896530602720e-01  -2.4441874507404274e-01  -2.4544564585042519e-01  -2.4700794207804544e-01  -2.4915869717664629e-01  -2.5194455255435189e-01  -2.5540455751656727e-01  -2.5956898417639890e-01  -2.6445826170435022e-01  -2.7008205167005223e-01  -2.7643845025119751e-01  -2.8351339247817303e-01  -2.9128024990374812e-01  -2.9969975401758098e-01  -3.0872015292306615e-01  -3.1827763560367328e-01  -3.2829709880474833e-01  </DataArray> 
</PointData> 
</Piece>
</UnstructuredGrid>
</VTKFile>