<?xml version="1.0"?>
<VTKFile type="UnstructuredGrid"  version="0.1"  >
<UnstructuredGrid>
<Piece  NumberOfPoints="65" NumberOfCells="64">
<Points>
<DataArray  type="Float64"  NumberOfComponents="3"  format="ascii">0 0 0  0.0625 0 0  0.125 0 0  0.1875 0 0  0.25 0 0  0.3125 0 0  0.375 0 0  0.4375 0 0  0.5 0 0  0.5625 0 0  0.625 0 0  0.6875 0 0  0.75 0 0  0.8125 0 0  0.875 0 0  0.9375 0 0  1 0 0  1.0625 0 0  1.125 0 0  1.1875 0 0  1.25 0 0  1.3125 0 0  1.375 0 0  1.4375 0 0  1.5 0 0  1.5625 0 0  1.625 0 0  1.6875 0 0  1.75 0 0  1.8125 0 0  1.875 0 0  1.9375 0 0  2 0 0  2.0625 0 0  2.125 0 0  2.1875 0 0  2.25 0 0  2.3125 0 0  2.375 0 0  2.4375 0 0  2.5 0 0  2.5625 0 0  2.625 0 0  2.6875 0 0  2.75 0 0  2.8125 0 0  2.875 0 0  2.9375 0 0  3 0 0  3.0625 0 0  3.125 0 0  3.1875 0 0  3.25 0 0  3.3125 0 0  3.375 0 0  3.4375 0 0  3.5 0 0  3.5625 0 0  3.625 0 0  3.6875 0 0  3.75 0 0  3.8125 0 0  3.875 0 0  3.9375 0 0  4 0 0  </DataArray>
</Points>
<Cells>
<DataArray  type="UInt32"  Name="connectivity"  format="ascii">0 1  1 2  2 3  3 4  4 5  5 6  6 7  7 8  8 9  9 10  10 11  11 12  12 13  13 14  14 15  15 16  16 17  17 18  18 19  19 20  20 21  21 22  22 23  23 24  24 25  25 26  26 27  27 28  28 29  29 30  30 31  31 32  32 33  33 34  34 35  35 36  36 37  37 38  38 39  39 40  40 41  41 42  42 43  43 44  44 45  45 46  46 47  47 48  48 49  49 50  50 51  51 52  52 53  53 54  54 55  55 56  56 57  57 58  58 59  59 60  60 61  61 62  62 63  63 64  </DataArray>
<DataArray  type="UInt32"  Name="offsets"  format="ascii">2 4 6 8 10 12 14 16 18 20 22 24 26 28 30 32 34 36 38 40 42 44 46 48 50 52 54 56 58 60 62 64 66 68 70 72 74 76 78 80 82 84 86 88 90 92 94 96 98 100 102 104 106 108 110 112 114 116 118 120 122 124 126 128 </DataArray>
<DataArray  type="UInt8"  Name="types"  format="ascii">3 3 3 3 3 3 3 3 3 3 3 3 3 3 3 3 3 3 3 3 3 3 3 3 3 3 3 3 3 3 3 3 3 3 3 3 3 3 3 3 3 3 3 3 3 3 3 3 3 3 3 3 3 3 3 3 3 3 3 3 3 3 3 3 </DataArray>
</Cells>
<PointData  Scalars="U"> 
<DataArray  type="Float64"  Name="U"  format="ascii">0.0000000000000000e+00  -5.6672540723772723e-02  -1.1600460711605824e-01  -1.7759800178611304e-01  -2.4105796371743818e-01  -3.0599488883821202e-01  -3.7202599823627119e-01  -4.3877693859834738e-01  -5.0588330131856618e-01  -5.7299204894614331e-01  -6.3976284015954998e-01  -7.0586924718808886e-01  -7.7099986246910912e-01  -8.3485929424292871e-01  -8.9716905365890887e-01  -9.5766833870640944e-01  -1.0161147228074605e+00  -1.0722847581326835e+00  -1.1259745055535646e+00  -1.1770000045564142e+00  -1.2251976973599128e+00  -1.2704248218539733e+00  -1.3125597877801793e+00  -1.3515025497841278e+00  -1.3871749895827818e+00  -1.4195213175156929e+00  -1.4485085012135650e+00  -1.4741267260631632e+00  -1.4963898886324782e+00  -1.5153361203192641e+00  -1.5310283342907813e+00  -1.5435547843995503e+00  -1.5530296203105678e+00  -1.5595934186939802e+00  -1.5634136661686420e+00  -1.5646851658789223e+00  -1.5636303363063004e+00  -1.5604993683149841e+00  -1.5555702046579061e+00  -1.5491483053657791e+00  -1.5415661627300821e+00  -1.5331825310701956e+00  -1.5243813392151515e+00  -1.5155702576660048e+00  -1.5071788977297105e+00  -1.4996566264791116e+00  -1.4934699890987839e+00  -1.4890997388774931e+00  -1.4870374846124730e+00  -1.4877819752622203e+00  -1.4918350520481303e+00  -1.4996973085549674e+00  -1.5118635093881712e+00  -1.5288178272739796e+00  -1.5510289667999999e+00  -1.5789452499679395e+00  -1.6129897440742309e+00  -1.6535555158975128e+00  -1.7010010975574330e+00  -1.7556462485841198e+00  -1.8177680956412157e+00  -1.8875977259940926e+00  -1.9653173033047238e+00  -2.0510577648395572e+00  -2.1448971479439143e+00  </DataArray> 
</PointData> 
</Piece>
</UnstructuredGrid>
</VTKFile>