<?xml version="1.0"?>
<VTKFile type="UnstructuredGrid"  version="0.1"  >
<UnstructuredGrid>
<Piece  NumberOfPoints="65" NumberOfCells="64">
<Points>
<DataArray  type="Float64"  NumberOfComponents="3"  format="ascii">0 0 0  0.0625 0 0  0.125 0 0  0.1875 0 0  0.25 0 0  0.3125 0 0  0.375 0 0  0.4375 0 0  0.5 0 0  0.5625 0 0  0.625 0 0  0.6875 0 0  0.75 0 0  0.8125 0 0  0.875 0 0  0.9375 0 0  1 0 0  1.0625 0 0  1.125 0 0  1.1875 0 0  1.25 0 0  1.3125 0 0  1.375 0 0  1.4375 0 0  1.5 0 0  1.5625 0 0  1.625 0 0  1.6875 0 0  1.75 0 0  1.8125 0 0  1.875 0 0  1.9375 0 0  2 0 0  2.0625 0 0  2.125 0 0  2.1875 0 0  2.25 0 0  2.3125 0 0  2.375 0 0  2.4375 0 0  2.5 0 0  2.5625 0 0  2.625 0 0  2.6875 0 0  2.75 0 0  2.8125 0 0  2.875 0 0  2.9375 0 0  3 0 0  3.0625 0 0  3.125 0 0  3.1875 0 0  3.25 0 0  3.3125 0 0  3.375 0 0  3.4375 0 0  3.5 0 0  3.5625 0 0  3.625 0 0  3.6875 0 0  3.75 0 0  3.8125 0 0  3.875 0 0  3.9375 0 0  4 0 0  </DataArray>
</Points>
<Cells>
<DataArray  type="UInt32"  Name="connectivity"  format="ascii">0 1  1 2  2 3  3 4  4 5  5 6  6 7  7 8  8 9  9 10  10 11  11 12  12 13  13 14  14 15  15 16  16 17  17 18  18 19  19 20  20 21  21 22  22 23  23 24  24 25  25 26  26 27  27 28  28 29  29 30  30 31  31 32  32 33  33 34  34 35  35 36  36 37  37 38  38 39  39 40  40 41  41 42  42 43  43 44  44 45  45 46  46 47  47 48  48 49  49 50  50 51  51 52  52 53  53 54  54 55  55 56  56 57  57 58  58 59  59 60  60 61  61 62  62 63  63 64  </DataArray>
<DataArray  type="UInt32"  Name="offsets"  format="ascii">2 4 6 8 10 12 14 16 18 20 22 24 26 28 30 32 34 36 38 40 42 44 46 48 50 52 54 56 58 60 62 64 66 68 70 72 74 76 78 80 82 84 86 88 90 92 94 96 98 100 102 104 106 108 110 112 114 116 118 120 122 124 126 128 </DataArray>
<DataArray  type="UInt8"  Name="types"  format="ascii">3 3 3 3 3 3 3 3 3 3 3 3 3 3 3 3 3 3 3 3 3 3 3 3 3 3 3 3 3 3 3 3 3 3 3 3 3 3 3 3 3 3 3 3 3 3 3 3 3 3 3 3 3 3 3 3 3 3 3 3 3 3 3 3 </DataArray>
</Cells>
<PointData  Scalars="U"> 
<DataArray  type="Float64"  Name="U"  format="ascii">0.0000000000000000e+00  1.6393369959954918e-01  3.2266315256671041e-01  4.7618835920705366e-01  6.2450931980211410e-01  7.6762603461040035e-01  9.0553850386846091e-01  1.0382467277919964e+00  1.1657507065770043e+00  1.2880504404009416e+00  1.4051459294238964e+00  1.5170371737897530e+00  1.6237241736273378e+00  1.7252069290515495e+00  1.8214854401644422e+00  1.9125597070562750e+00  1.9984297298065059e+00  2.0790955084847331e+00  2.1545570431515699e+00  2.2248143338594581e+00  2.2898673806534027e+00  2.3497161835716414e+00  2.4043607426462255e+00  2.4538010579035303e+00  2.4980371293646728e+00  2.5370689570458507e+00  2.5708965409585871e+00  2.5995198811098881e+00  2.6229389775023018e+00  2.6411538301338875e+00  2.6541644389980763e+00  2.6619708040834391e+00  2.6645729253733359e+00  2.6619708028454716e+00  2.6541644364713237e+00  2.6411538262154690e+00  2.6229389720347833e+00  2.5995198738775325e+00  2.5708965316823353e+00  2.5370689453770163e+00  2.4980371148773415e+00  2.4538010400856387e+00  2.4043607208893238e+00  2.3497161571593179e+00  2.2898673487483920e+00  2.2248142954894279e+00  2.1545569971936365e+00  2.0790954536487356e+00  1.9984296646171122e+00  1.9125596298340048e+00  1.8214853490057210e+00  1.7252068218079279e+00  1.6237240478840478e+00  1.5170370268437876e+00  1.4051457582618452e+00  1.2880502416768207e+00  1.1657504765903735e+00  1.0382464624666570e+00  9.0553819873206498e-01  7.6762568477532267e-01  6.2450891994794355e-01  4.7618790356508439e-01  3.2266263490681163e-01  1.6393311321979784e-01  -6.6228054605308328e-07  </DataArray> 
</PointData> 
</Piece>
</UnstructuredGrid>
</VTKFile>