<?xml version="1.0"?>
<VTKFile type="UnstructuredGrid"  version="0.1"  >
<UnstructuredGrid>
<Piece  NumberOfPoints="65" NumberOfCells="64">
<Points>
<DataArray  type="Float64"  NumberOfComponents="3"  format="ascii">0 0 0  0.0625 0 0  0.125 0 0  0.1875 0 0  0.25 0 0  0.3125 0 0  0.375 0 0  0.4375 0 0  0.5 0 0  0.5625 0 0  0.625 0 0  0.6875 0 0  0.75 0 0  0.8125 0 0  0.875 0 0  0.9375 0 0  1 0 0  1.0625 0 0  1.125 0 0  1.1875 0 0  1.25 0 0  1.3125 0 0  1.375 0 0  1.4375 0 0  1.5 0 0  1.5625 0 0  1.625 0 0  1.6875 0 0  1.75 0 0  1.8125 0 0  1.875 0 0  1.9375 0 0  2 0 0  2.0625 0 0  2.125 0 0  2.1875 0 0  2.25 0 0  2.3125 0 0  2.375 0 0  2.4375 0 0  2.5 0 0  2.5625 0 0  2.625 0 0  2.6875 0 0  2.75 0 0  2.8125 0 0  2.875 0 0  2.9375 0 0  3 0 0  3.0625 0 0  3.125 0 0  3.1875 0 0  3.25 0 0  3.3125 0 0  3.375 0 0  3.4375 0 0  3.5 0 0  3.5625 0 0  3.625 0 0  3.6875 0 0  3.75 0 0  3.8125 0 0  3.875 0 0  3.9375 0 0  4 0 0  </DataArray>
</Points>
<Cells>
<DataArray  type="UInt32"  Name="connectivity"  format="ascii">0 1  1 2  2 3  3 4  4 5  5 6  6 7  7 8  8 9  9 10  10 11  11 12  12 13  13 14  14 15  15 16  16 17  17 18  18 19  19 20  20 21  21 22  22 23  23 24  24 25  25 26  26 27  27 28  28 29  29 30  30 31  31 32  32 33  33 34  34 35  35 36  36 37  37 38  38 39  39 40  40 41  41 42  42 43  43 44  44 45  45 46  46 47  47 48  48 49  49 50  50 51  51 52  52 53  53 54  54 55  55 56  56 57  57 58  58 59  59 60  60 61  61 62  62 63  63 64  </DataArray>
<DataArray  type="UInt32"  Name="offsets"  format="ascii">2 4 6 8 10 12 14 16 18 20 22 24 26 28 30 32 34 36 38 40 42 44 46 48 50 52 54 56 58 60 62 64 66 68 70 72 74 76 78 80 82 84 86 88 90 92 94 96 98 100 102 104 106 108 110 112 114 116 118 120 122 124 126 128 </DataArray>
<DataArray  type="UInt8"  Name="types"  format="ascii">3 3 3 3 3 3 3 3 3 3 3 3 3 3 3 3 3 3 3 3 3 3 3 3 3 3 3 3 3 3 3 3 3 3 3 3 3 3 3 3 3 3 3 3 3 3 3 3 3 3 3 3 3 3 3 3 3 3 3 3 3 3 3 3 </DataArray>
</Cells>
<PointData  Scalars="U"> 
<DataArray  type="Float64"  Name="U"  format="ascii">0.0000000000000000e+00  1.4984751527625345e-01  2.9493796407038858e-01  4.3527134670616002e-01  5.7084766348495353e-01  7.0166691468651343e-01  8.2772910056972893e-01  9.4903422137347226e-01  1.0655822773174735e+00  1.1773732686032261e+00  1.2844071954149088e+00  1.3866840579203172e+00  1.4842038562717950e+00  1.5769665906071502e+00  1.6649722610505600e+00  1.7482208677134423e+00  1.8267124106952946e+00  1.9004468900844913e+00  1.9694243059590337e+00  2.0336446583872450e+00  2.0931079474284009e+00  2.1478141731333049e+00  2.1977633355447841e+00  2.2429554346981142e+00  2.2833904706213697e+00  2.3190684433356838e+00  2.3499893528554341e+00  2.3761531991883276e+00  2.3975599823354083e+00  2.4142097022909543e+00  2.4261023590422988e+00  2.4332379525695376e+00  2.4356164828451510e+00  2.4332379498335150e+00  2.4261023534903261e+00  2.4142096937619182e+00  2.3975599705844930e+00  2.3761531838832513e+00  2.3499893335714388e+00  2.3190684195493021e+00  2.2833904417029802e+00  2.2429553999033147e+00  2.1977632940046075e+00  2.1478141238433297e+00  2.0931078892367965e+00  2.0336445899818156e+00  1.9694242258533465e+00  1.9004467966031597e+00  1.8267123019585392e+00  1.7482207416210349e+00  1.6649721152652981e+00  1.5769664225380124e+00  1.4842036630569517e+00  1.3866838364101857e+00  1.2844069421554591e+00  1.1773729798197661e+00  1.0655819488991445e+00  9.4903384885871145e-01  8.2772867913296011e-01  7.0166643912633586e-01  5.7084712821410710e-01  4.3527074574354541e-01  2.9493729103542238e-01  1.4984676338583031e-01  -8.3793166975953895e-07  </DataArray> 
</PointData> 
</Piece>
</UnstructuredGrid>
</VTKFile>