<?xml version="1.0"?>
<VTKFile type="UnstructuredGrid"  version="0.1"  >
<UnstructuredGrid>
<Piece  NumberOfPoints="65" NumberOfCells="64">
<Points>
<DataArray  type="Float64"  NumberOfComponents="3"  format="ascii">0 0 0  0.0625 0 0  0.125 0 0  0.1875 0 0  0.25 0 0  0.3125 0 0  0.375 0 0  0.4375 0 0  0.5 0 0  0.5625 0 0  0.625 0 0  0.6875 0 0  0.75 0 0  0.8125 0 0  0.875 0 0  0.9375 0 0  1 0 0  1.0625 0 0  1.125 0 0  1.1875 0 0  1.25 0 0  1.3125 0 0  1.375 0 0  1.4375 0 0  1.5 0 0  1.5625 0 0  1.625 0 0  1.6875 0 0  1.75 0 0  1.8125 0 0  1.875 0 0  1.9375 0 0  2 0 0  2.0625 0 0  2.125 0 0  2.1875 0 0  2.25 0 0  2.3125 0 0  2.375 0 0  2.4375 0 0  2.5 0 0  2.5625 0 0  2.625 0 0  2.6875 0 0  2.75 0 0  2.8125 0 0  2.875 0 0  2.9375 0 0  3 0 0  3.0625 0 0  3.125 0 0  3.1875 0 0  3.25 0 0  3.3125 0 0  3.375 0 0  3.4375 0 0  3.5 0 0  3.5625 0 0  3.625 0 0  3.6875 0 0  3.75 0 0  3.8125 0 0  3.875 0 0  3.9375 0 0  4 0 0  </DataArray>
</Points>
<Cells>
<DataArray  type="UInt32"  Name="connectivity"  format="ascii">0 1  1 2  2 3  3 4  4 5  5 6  6 7  7 8  8 9  9 10  10 11  11 12  12 13  13 14  14 15  15 16  16 17  17 18  18 19  19 20  20 21  21 22  22 23  23 24  24 25  25 26  26 27  27 28  28 29  29 30  30 31  31 32  32 33  33 34  34 35  35 36  36 37  37 38  38 39  39 40  40 41  41 42  42 43  43 44  44 45  45 46  46 47  47 48  48 49  49 50  50 51  51 52  52 53  53 54  54 55  55 56  56 57  57 58  58 59  59 60  60 61  61 62  62 63  63 64  </DataArray>
<DataArray  type="UInt32"  Name="offsets"  format="ascii">2 4 6 8 10 12 14 16 18 20 22 24 26 28 30 32 34 36 38 40 42 44 46 48 50 52 54 56 58 60 62 64 66 68 70 72 74 76 78 80 82 84 86 88 90 92 94 96 98 100 102 104 106 108 110 112 114 116 118 120 122 124 126 128 </DataArray>
<DataArray  type="UInt8"  Name="types"  format="ascii">3 3 3 3 3 3 3 3 3 3 3 3 3 3 3 3 3 3 3 3 3 3 3 3 3 3 3 3 3 3 3 3 3 3 3 3 3 3 3 3 3 3 3 3 3 3 3 3 3 3 3 3 3 3 3 3 3 3 3 3 3 3 3 3 </DataArray>
</Cells>
<PointData  Scalars="ud"> 
<DataArray  type="Float64"  Name="ud"  format="ascii">0.0000000000000000e+00  1.3121094704787012e-01  2.5825646720533163e-01  3.8113656047238459e-01  4.9985122684902900e-01  6.1440046633526479e-01  7.2478427893109199e-01  8.3100266463651074e-01  9.3305562345152082e-01  1.0309431553761224e+00  1.1246652604103151e+00  1.2142219385540995e+00  1.2996131898074754e+00  1.3808390141704425e+00  1.4578994116430013e+00  1.5307943822251513e+00  1.5995239259168927e+00  1.6640880427182256e+00  1.7244867326291500e+00  1.7807199956496658e+00  1.8327878317797730e+00  1.8806902410194715e+00  1.9244272233687616e+00  1.9639987788276430e+00  1.9994049073961160e+00  2.0306456090741802e+00  2.0577208838618359e+00  2.0806307317590833e+00  2.0993751527659219e+00  2.1139541468823517e+00  2.1243677141083732e+00  2.1306158544439859e+00  2.1326985678891903e+00  2.1306158544439859e+00  2.1243677141083732e+00  2.1139541468823517e+00  2.0993751527659219e+00  2.0806307317590833e+00  2.0577208838618359e+00  2.0306456090741802e+00  1.9994049073961160e+00  1.9639987788276430e+00  1.9244272233687616e+00  1.8806902410194715e+00  1.8327878317797730e+00  1.7807199956496658e+00  1.7244867326291500e+00  1.6640880427182256e+00  1.5995239259168927e+00  1.5307943822251513e+00  1.4578994116430013e+00  1.3808390141704425e+00  1.2996131898074754e+00  1.2142219385540995e+00  1.1246652604103151e+00  1.0309431553761224e+00  9.3305562345152082e-01  8.3100266463651074e-01  7.2478427893109199e-01  6.1440046633526479e-01  4.9985122684902900e-01  3.8113656047238459e-01  2.5825646720533163e-01  1.3121094704787012e-01  0.0000000000000000e+00  </DataArray> 
</PointData> 
</Piece>
</UnstructuredGrid>
</VTKFile>