<?xml version="1.0"?>
<VTKFile type="UnstructuredGrid"  version="0.1"  >
<UnstructuredGrid>
<Piece  NumberOfPoints="65" NumberOfCells="64">
<Points>
<DataArray  type="Float64"  NumberOfComponents="3"  format="ascii">0 0 0  0.0625 0 0  0.125 0 0  0.1875 0 0  0.25 0 0  0.3125 0 0  0.375 0 0  0.4375 0 0  0.5 0 0  0.5625 0 0  0.625 0 0  0.6875 0 0  0.75 0 0  0.8125 0 0  0.875 0 0  0.9375 0 0  1 0 0  1.0625 0 0  1.125 0 0  1.1875 0 0  1.25 0 0  1.3125 0 0  1.375 0 0  1.4375 0 0  1.5 0 0  1.5625 0 0  1.625 0 0  1.6875 0 0  1.75 0 0  1.8125 0 0  1.875 0 0  1.9375 0 0  2 0 0  2.0625 0 0  2.125 0 0  2.1875 0 0  2.25 0 0  2.3125 0 0  2.375 0 0  2.4375 0 0  2.5 0 0  2.5625 0 0  2.625 0 0  2.6875 0 0  2.75 0 0  2.8125 0 0  2.875 0 0  2.9375 0 0  3 0 0  3.0625 0 0  3.125 0 0  3.1875 0 0  3.25 0 0  3.3125 0 0  3.375 0 0  3.4375 0 0  3.5 0 0  3.5625 0 0  3.625 0 0  3.6875 0 0  3.75 0 0  3.8125 0 0  3.875 0 0  3.9375 0 0  4 0 0  </DataArray>
</Points>
<Cells>
<DataArray  type="UInt32"  Name="connectivity"  format="ascii">0 1  1 2  2 3  3 4  4 5  5 6  6 7  7 8  8 9  9 10  10 11  11 12  12 13  13 14  14 15  15 16  16 17  17 18  18 19  19 20  20 21  21 22  22 23  23 24  24 25  25 26  26 27  27 28  28 29  29 30  30 31  31 32  32 33  33 34  34 35  35 36  36 37  37 38  38 39  39 40  40 41  41 42  42 43  43 44  44 45  45 46  46 47  47 48  48 49  49 50  50 51  51 52  52 53  53 54  54 55  55 56  56 57  57 58  58 59  59 60  60 61  61 62  62 63  63 64  </DataArray>
<DataArray  type="UInt32"  Name="offsets"  format="ascii">2 4 6 8 10 12 14 16 18 20 22 24 26 28 30 32 34 36 38 40 42 44 46 48 50 52 54 56 58 60 62 64 66 68 70 72 74 76 78 80 82 84 86 88 90 92 94 96 98 100 102 104 106 108 110 112 114 116 118 120 122 124 126 128 </DataArray>
<DataArray  type="UInt8"  Name="types"  format="ascii">3 3 3 3 3 3 3 3 3 3 3 3 3 3 3 3 3 3 3 3 3 3 3 3 3 3 3 3 3 3 3 3 3 3 3 3 3 3 3 3 3 3 3 3 3 3 3 3 3 3 3 3 3 3 3 3 3 3 3 3 3 3 3 3 </DataArray>
</Cells>
<PointData  Scalars="U"> 
<DataArray  type="Float64"  Name="U"  format="ascii">0.0000000000000000e+00  -6.4232938538711162e-02  -1.3062222251207070e-01  -1.9880896512540716e-01  -2.6843707609173501e-01  -3.3915467546800510e-01  -4.1061548027191858e-01  -4.8248015565978503e-01  -5.5441762330861222e-01  -6.2610632067129313e-01  -6.9723540592868638e-01  -7.6750590470814872e-01  -8.3663179593277137e-01  -9.0434103546480460e-01  -9.7037651746506581e-01  -1.0344969745621784e+00  -1.0964778189674067e+00  -1.1561119275415956e+00  -1.2132103744832632e+00  -1.2676031157295145e+00  -1.3191396293187760e+00  -1.3676895158384261e+00  -1.4131430626614574e+00  -1.4554117749635602e+00  -1.4944288755139741e+00  -1.5301497739684451e+00  -1.5625525048886628e+00  -1.5916381320071680e+00  -1.6174311143966671e+00  -1.6399796282429362e+00  -1.6593558359234943e+00  -1.6756560921284043e+00  -1.6890010748978532e+00  -1.6995358277691790e+00  -1.7074296977999026e+00  -1.7128761531375754e+00  -1.7160924631122720e+00  -1.7173192235971060e+00  -1.7168197106709275e+00  -1.7148790464684547e+00  -1.7118031625458090e+00  -1.7079175481370701e+00  -1.7035657733259539e+00  -1.6991077803829697e+00  -1.6949179402800389e+00  -1.6913828756294416e+00  -1.6888990559210830e+00  -1.6878701758526156e+00  -1.6887043326464222e+00  -1.6918110233982775e+00  -1.6975979885673604e+00  -1.7064679325530288e+00  -1.7188151567657657e+00  -1.7350221445463900e+00  -1.7554561405854046e+00  -1.7804657700222519e+00  -1.8103777440585800e+00  -1.8454936996179248e+00  -1.8860872202690608e+00  -1.9324010842718131e+00  -1.9846447832021545e+00  -2.0429923511982131e+00  -2.1075805405010266e+00  -2.1785073737331850e+00  -2.2558310973814404e+00  </DataArray> 
</PointData> 
</Piece>
</UnstructuredGrid>
</VTKFile>