<?xml version="1.0"?>
<VTKFile type="UnstructuredGrid"  version="0.1"  >
<UnstructuredGrid>
<Piece  NumberOfPoints="65" NumberOfCells="64">
<Points>
<DataArray  type="Float64"  NumberOfComponents="3"  format="ascii">0 0 0  0.0625 0 0  0.125 0 0  0.1875 0 0  0.25 0 0  0.3125 0 0  0.375 0 0  0.4375 0 0  0.5 0 0  0.5625 0 0  0.625 0 0  0.6875 0 0  0.75 0 0  0.8125 0 0  0.875 0 0  0.9375 0 0  1 0 0  1.0625 0 0  1.125 0 0  1.1875 0 0  1.25 0 0  1.3125 0 0  1.375 0 0  1.4375 0 0  1.5 0 0  1.5625 0 0  1.625 0 0  1.6875 0 0  1.75 0 0  1.8125 0 0  1.875 0 0  1.9375 0 0  2 0 0  2.0625 0 0  2.125 0 0  2.1875 0 0  2.25 0 0  2.3125 0 0  2.375 0 0  2.4375 0 0  2.5 0 0  2.5625 0 0  2.625 0 0  2.6875 0 0  2.75 0 0  2.8125 0 0  2.875 0 0  2.9375 0 0  3 0 0  3.0625 0 0  3.125 0 0  3.1875 0 0  3.25 0 0  3.3125 0 0  3.375 0 0  3.4375 0 0  3.5 0 0  3.5625 0 0  3.625 0 0  3.6875 0 0  3.75 0 0  3.8125 0 0  3.875 0 0  3.9375 0 0  4 0 0  </DataArray>
</Points>
<Cells>
<DataArray  type="UInt32"  Name="connectivity"  format="ascii">0 1  1 2  2 3  3 4  4 5  5 6  6 7  7 8  8 9  9 10  10 11  11 12  12 13  13 14  14 15  15 16  16 17  17 18  18 19  19 20  20 21  21 22  22 23  23 24  24 25  25 26  26 27  27 28  28 29  29 30  30 31  31 32  32 33  33 34  34 35  35 36  36 37  37 38  38 39  39 40  40 41  41 42  42 43  43 44  44 45  45 46  46 47  47 48  48 49  49 50  50 51  51 52  52 53  53 54  54 55  55 56  56 57  57 58  58 59  59 60  60 61  61 62  62 63  63 64  </DataArray>
<DataArray  type="UInt32"  Name="offsets"  format="ascii">2 4 6 8 10 12 14 16 18 20 22 24 26 28 30 32 34 36 38 40 42 44 46 48 50 52 54 56 58 60 62 64 66 68 70 72 74 76 78 80 82 84 86 88 90 92 94 96 98 100 102 104 106 108 110 112 114 116 118 120 122 124 126 128 </DataArray>
<DataArray  type="UInt8"  Name="types"  format="ascii">3 3 3 3 3 3 3 3 3 3 3 3 3 3 3 3 3 3 3 3 3 3 3 3 3 3 3 3 3 3 3 3 3 3 3 3 3 3 3 3 3 3 3 3 3 3 3 3 3 3 3 3 3 3 3 3 3 3 3 3 3 3 3 3 </DataArray>
</Cells>
<PointData  Scalars="U"> 
<DataArray  type="Float64"  Name="U"  format="ascii">0.0000000000000000e+00  1.5827052959265681e-01  3.1151659560184414e-01  4.5973819834101853e-01  6.0293533810025857e-01  7.4110801514715485e-01  8.7425622972775829e-01  1.0023799820675767e+00  1.1254792723726084e+00  1.2435541008303974e+00  1.3566044676111029e+00  1.4646303728685690e+00  1.5676318167413870e+00  1.6656087993539344e+00  1.7585613208173951e+00  1.8464893812307375e+00  1.9293929806816486e+00  2.0072721192474243e+00  2.0801267969957968e+00  2.1479570139857054e+00  2.2107627702679991e+00  2.2685440658860676e+00  2.3213009008763978e+00  2.3690332752690502e+00  2.4117411890880609e+00  2.4494246423517412e+00  2.4820836350729101e+00  2.5097181672590185e+00  2.5323282389121906e+00  2.5499138500291569e+00  2.5624750006011001e+00  2.5700116906133919e+00  2.5725239200452239e+00  2.5700116888691356e+00  2.5624749970504359e+00  2.5499138445465124e+00  2.5323282313060291e+00  2.5097181572680234e+00  2.4820836223608884e+00  2.4494246265012563e+00  2.4117411695927813e+00  2.3690332515248236e+00  2.3213008721710633e+00  2.2685440313880196e+00  2.2107627290135263e+00  2.1479569648651458e+00  2.0801267387385578e+00  2.0072720504059389e+00  1.9293928996143466e+00  1.8464892860841395e+00  1.7585612095074583e+00  1.6656086695467895e+00  1.5676316658336480e+00  1.4646301979674017e+00  1.3566042655142747e+00  1.2435538680065519e+00  1.1254790049420227e+00  1.0023796757836858e+00  8.7425587995974707e-01  7.4110761686393278e-01  6.0293488585614086e-01  4.5973768626344974e-01  3.1151601738149842e-01  1.5826987847624979e-01  -7.3121385911090591e-07  </DataArray> 
</PointData> 
</Piece>
</UnstructuredGrid>
</VTKFile>