<?xml version="1.0"?>
<VTKFile type="UnstructuredGrid"  version="0.1"  >
<UnstructuredGrid>
<Piece  NumberOfPoints="65" NumberOfCells="64">
<Points>
<DataArray  type="Float64"  NumberOfComponents="3"  format="ascii">0 0 0  0.0625 0 0  0.125 0 0  0.1875 0 0  0.25 0 0  0.3125 0 0  0.375 0 0  0.4375 0 0  0.5 0 0  0.5625 0 0  0.625 0 0  0.6875 0 0  0.75 0 0  0.8125 0 0  0.875 0 0  0.9375 0 0  1 0 0  1.0625 0 0  1.125 0 0  1.1875 0 0  1.25 0 0  1.3125 0 0  1.375 0 0  1.4375 0 0  1.5 0 0  1.5625 0 0  1.625 0 0  1.6875 0 0  1.75 0 0  1.8125 0 0  1.875 0 0  1.9375 0 0  2 0 0  2.0625 0 0  2.125 0 0  2.1875 0 0  2.25 0 0  2.3125 0 0  2.375 0 0  2.4375 0 0  2.5 0 0  2.5625 0 0  2.625 0 0  2.6875 0 0  2.75 0 0  2.8125 0 0  2.875 0 0  2.9375 0 0  3 0 0  3.0625 0 0  3.125 0 0  3.1875 0 0  3.25 0 0  3.3125 0 0  3.375 0 0  3.4375 0 0  3.5 0 0  3.5625 0 0  3.625 0 0  3.6875 0 0  3.75 0 0  3.8125 0 0  3.875 0 0  3.9375 0 0  4 0 0  </DataArray>
</Points>
<Cells>
<DataArray  type="UInt32"  Name="connectivity"  format="ascii">0 1  1 2  2 3  3 4  4 5  5 6  6 7  7 8  8 9  9 10  10 11  11 12  12 13  13 14  14 15  15 16  16 17  17 18  18 19  19 20  20 21  21 22  22 23  23 24  24 25  25 26  26 27  27 28  28 29  29 30  30 31  31 32  32 33  33 34  34 35  35 36  36 37  37 38  38 39  39 40  40 41  41 42  42 43  43 44  44 45  45 46  46 47  47 48  48 49  49 50  50 51  51 52  52 53  53 54  54 55  55 56  56 57  57 58  58 59  59 60  60 61  61 62  62 63  63 64  </DataArray>
<DataArray  type="UInt32"  Name="offsets"  format="ascii">2 4 6 8 10 12 14 16 18 20 22 24 26 28 30 32 34 36 38 40 42 44 46 48 50 52 54 56 58 60 62 64 66 68 70 72 74 76 78 80 82 84 86 88 90 92 94 96 98 100 102 104 106 108 110 112 114 116 118 120 122 124 126 128 </DataArray>
<DataArray  type="UInt8"  Name="types"  format="ascii">3 3 3 3 3 3 3 3 3 3 3 3 3 3 3 3 3 3 3 3 3 3 3 3 3 3 3 3 3 3 3 3 3 3 3 3 3 3 3 3 3 3 3 3 3 3 3 3 3 3 3 3 3 3 3 3 3 3 3 3 3 3 3 3 </DataArray>
</Cells>
<PointData  Scalars="U"> 
<DataArray  type="Float64"  Name="U"  format="ascii">0.0000000000000000e+00  -6.0593771675476645e-02  -1.2359332733931946e-01  -1.8862033460667693e-01  -2.5529953765448188e-01  -3.2326030606098466e-01  -3.9213814574318667e-01  -4.6157616071998986e-01  -5.3122645572709026e-01  -6.0075147125693384e-01  -6.6982524434535495e-01  -7.3813459032119733e-01  -8.0538020271653399e-01  -8.7127767053983507e-01  -9.3555841407759122e-01  -9.9797054224647486e-01  -1.0582796362047946e+00  -1.1162694653888940e+00  -1.1717426433124440e+00  -1.2245212313060707e+00  -1.2744472988412483e+00  -1.3213834491450271e+00  -1.3652133184505337e+00  -1.4058420564332617e+00  -1.4431967941581634e+00  -1.4772271042233576e+00  -1.5079054557619103e+00  -1.5352276645957690e+00  -1.5592133361807377e+00  -1.5799062961059043e+00  -1.5973749998944575e+00  -1.6117129107849331e+00  -1.6230388311510042e+00  -1.6314971703490793e+00  -1.6372581291756161e+00  -1.6405177788810597e+00  -1.6414980109337030e+00  -1.6404463325583947e+00  -1.6376354825865298e+00  -1.6333628424270132e+00  -1.6279496180678379e+00  -1.6217397709890928e+00  -1.6150986787312498e+00  -1.6084115096113878e+00  -1.6020813006796024e+00  -1.5965267333930346e+00  -1.5921796075600052e+00  -1.5894820207461999e+00  -1.5888832673855862e+00  -1.5908364791231129e+00  -1.5957950352366441e+00  -1.6042087791299111e+00  -1.6165200836365190e+00  -1.6331598140066390e+00  -1.6545432427494562e+00  -1.6810659747774925e+00  -1.7130999443683406e+00  -1.7509895471803019e+00  -1.7950479708230744e+00  -1.8455537862274820e+00  -1.9027478592600693e+00  -1.9668306377186386e+00  -2.0379598631018525e+00  -2.1162487494958429e+00  -2.2017646637335373e+00  </DataArray> 
</PointData> 
</Piece>
</UnstructuredGrid>
</VTKFile>