<?xml version="1.0"?>
<VTKFile type="UnstructuredGrid"  version="0.1"  >
<UnstructuredGrid>
<Piece  NumberOfPoints="65" NumberOfCells="64">
<Points>
<DataArray  type="Float64"  NumberOfComponents="3"  format="ascii">0 0 0  0.0625 0 0  0.125 0 0  0.1875 0 0  0.25 0 0  0.3125 0 0  0.375 0 0  0.4375 0 0  0.5 0 0  0.5625 0 0  0.625 0 0  0.6875 0 0  0.75 0 0  0.8125 0 0  0.875 0 0  0.9375 0 0  1 0 0  1.0625 0 0  1.125 0 0  1.1875 0 0  1.25 0 0  1.3125 0 0  1.375 0 0  1.4375 0 0  1.5 0 0  1.5625 0 0  1.625 0 0  1.6875 0 0  1.75 0 0  1.8125 0 0  1.875 0 0  1.9375 0 0  2 0 0  2.0625 0 0  2.125 0 0  2.1875 0 0  2.25 0 0  2.3125 0 0  2.375 0 0  2.4375 0 0  2.5 0 0  2.5625 0 0  2.625 0 0  2.6875 0 0  2.75 0 0  2.8125 0 0  2.875 0 0  2.9375 0 0  3 0 0  3.0625 0 0  3.125 0 0  3.1875 0 0  3.25 0 0  3.3125 0 0  3.375 0 0  3.4375 0 0  3.5 0 0  3.5625 0 0  3.625 0 0  3.6875 0 0  3.75 0 0  3.8125 0 0  3.875 0 0  3.9375 0 0  4 0 0  </DataArray>
</Points>
<Cells>
<DataArray  type="UInt32"  Name="connectivity"  format="ascii">0 1  1 2  2 3  3 4  4 5  5 6  6 7  7 8  8 9  9 10  10 11  11 12  12 13  13 14  14 15  15 16  16 17  17 18  18 19  19 20  20 21  21 22  22 23  23 24  24 25  25 26  26 27  27 28  28 29  29 30  30 31  31 32  32 33  33 34  34 35  35 36  36 37  37 38  38 39  39 40  40 41  41 42  42 43  43 44  44 45  45 46  46 47  47 48  48 49  49 50  50 51  51 52  52 53  53 54  54 55  55 56  56 57  57 58  58 59  59 60  60 61  61 62  62 63  63 64  </DataArray>
<DataArray  type="UInt32"  Name="offsets"  format="ascii">2 4 6 8 10 12 14 16 18 20 22 24 26 28 30 32 34 36 38 40 42 44 46 48 50 52 54 56 58 60 62 64 66 68 70 72 74 76 78 80 82 84 86 88 90 92 94 96 98 100 102 104 106 108 110 112 114 116 118 120 122 124 126 128 </DataArray>
<DataArray  type="UInt8"  Name="types"  format="ascii">3 3 3 3 3 3 3 3 3 3 3 3 3 3 3 3 3 3 3 3 3 3 3 3 3 3 3 3 3 3 3 3 3 3 3 3 3 3 3 3 3 3 3 3 3 3 3 3 3 3 3 3 3 3 3 3 3 3 3 3 3 3 3 3 </DataArray>
</Cells>
<PointData  Scalars="U"> 
<DataArray  type="Float64"  Name="U"  format="ascii">0.0000000000000000e+00  1.3484814924258290e-01  2.6541540206314107e-01  3.9170175879962754e-01  5.1370721976949119e-01  6.3143178527014832e-01  7.4487545557950974e-01  8.5403823095655906e-01  9.5892011164197311e-01  1.0595210978587717e+00  1.1558411898129941e+00  1.2478803876943905e+00  1.3356386916771179e+00  1.4191161019204397e+00  1.4983126185694131e+00  1.5732282417555625e+00  1.6438629715975259e+00  1.7102168082016771e+00  1.7722897516627063e+00  1.8300818020641587e+00  1.8835929594789254e+00  1.9328232239696816e+00  1.9777725955892647e+00  2.0184410743809864e+00  2.0548286603788850e+00  2.0869353536078998e+00  2.1147611540839777e+00  2.1383060618140957e+00  2.1575700767962194e+00  2.1725531990191636e+00  2.1832554284623926e+00  2.1896767650957227e+00  2.1918172088789589e+00  2.1896767597614470e+00  2.1832554176815484e+00  2.1725531825660505e+00  2.1575700543294989e+00  2.1383060328734729e+00  2.1147611180858030e+00  2.0869353098397321e+00  2.0548286079930436e+00  2.0184410123871439e+00  1.9777725228461391e+00  1.9328231391758832e+00  1.8835928611630366e+00  1.8300816885741358e+00  1.7722896211546921e+00  1.7102166586283314e+00  1.6438628006959966e+00  1.5732280470352193e+00  1.4983123972994883e+00  1.4191158511177231e+00  1.3356384080938710e+00  1.2478800678066517e+00  1.1558408298094480e+00  1.0595206936303800e+00  9.5891965877255991e-01  8.5403772471454664e-01  7.4487489091101522e-01  6.3143115679364459e-01  5.1370652177223630e-01  3.9170098523607005e-01  2.6541454655549701e-01  1.3484720508377615e-01  -1.0398408505456433e-06  </DataArray> 
</PointData> 
</Piece>
</UnstructuredGrid>
</VTKFile>