<?xml version="1.0"?>
<VTKFile type="UnstructuredGrid"  version="0.1"  >
<UnstructuredGrid>
<Piece  NumberOfPoints="65" NumberOfCells="64">
<Points>
<DataArray  type="Float64"  NumberOfComponents="3"  format="ascii">0 0 0  0.0625 0 0  0.125 0 0  0.1875 0 0  0.25 0 0  0.3125 0 0  0.375 0 0  0.4375 0 0  0.5 0 0  0.5625 0 0  0.625 0 0  0.6875 0 0  0.75 0 0  0.8125 0 0  0.875 0 0  0.9375 0 0  1 0 0  1.0625 0 0  1.125 0 0  1.1875 0 0  1.25 0 0  1.3125 0 0  1.375 0 0  1.4375 0 0  1.5 0 0  1.5625 0 0  1.625 0 0  1.6875 0 0  1.75 0 0  1.8125 0 0  1.875 0 0  1.9375 0 0  2 0 0  2.0625 0 0  2.125 0 0  2.1875 0 0  2.25 0 0  2.3125 0 0  2.375 0 0  2.4375 0 0  2.5 0 0  2.5625 0 0  2.625 0 0  2.6875 0 0  2.75 0 0  2.8125 0 0  2.875 0 0  2.9375 0 0  3 0 0  3.0625 0 0  3.125 0 0  3.1875 0 0  3.25 0 0  3.3125 0 0  3.375 0 0  3.4375 0 0  3.5 0 0  3.5625 0 0  3.625 0 0  3.6875 0 0  3.75 0 0  3.8125 0 0  3.875 0 0  3.9375 0 0  4 0 0  </DataArray>
</Points>
<Cells>
<DataArray  type="UInt32"  Name="connectivity"  format="ascii">0 1  1 2  2 3  3 4  4 5  5 6  6 7  7 8  8 9  9 10  10 11  11 12  12 13  13 14  14 15  15 16  16 17  17 18  18 19  19 20  20 21  21 22  22 23  23 24  24 25  25 26  26 27  27 28  28 29  29 30  30 31  31 32  32 33  33 34  34 35  35 36  36 37  37 38  38 39  39 40  40 41  41 42  42 43  43 44  44 45  45 46  46 47  47 48  48 49  49 50  50 51  51 52  52 53  53 54  54 55  55 56  56 57  57 58  58 59  59 60  60 61  61 62  62 63  63 64  </DataArray>
<DataArray  type="UInt32"  Name="offsets"  format="ascii">2 4 6 8 10 12 14 16 18 20 22 24 26 28 30 32 34 36 38 40 42 44 46 48 50 52 54 56 58 60 62 64 66 68 70 72 74 76 78 80 82 84 86 88 90 92 94 96 98 100 102 104 106 108 110 112 114 116 118 120 122 124 126 128 </DataArray>
<DataArray  type="UInt8"  Name="types"  format="ascii">3 3 3 3 3 3 3 3 3 3 3 3 3 3 3 3 3 3 3 3 3 3 3 3 3 3 3 3 3 3 3 3 3 3 3 3 3 3 3 3 3 3 3 3 3 3 3 3 3 3 3 3 3 3 3 3 3 3 3 3 3 3 3 3 </DataArray>
</Cells>
<PointData  Scalars="U"> 
<DataArray  type="Float64"  Name="U"  format="ascii">0.0000000000000000e+00  -7.5759803248629742e-02  -1.5266072669047781e-01  -2.3043321799149627e-01  -3.0880978514923008e-01  -3.8752603995654555e-01  -4.6632173133190125e-01  -5.4494176507274861e-01  -6.2313720662722227e-01  -7.0066626352393369e-01  -7.7729524414791595e-01  -8.5279948959982754e-01  -9.2696427542260729e-01  -9.9958568002212245e-01  -1.0704714166434874e+00  -1.1394416257905136e+00  -1.2063296249906199e+00  -1.2709826128106083e+00  -1.3332623240199049e+00  -1.3930456327779965e+00  -1.4502251006937064e+00  -1.5047094665684235e+00  -1.5564240745973528e+00  -1.6053112377670773e+00  -1.6513305331600812e+00  -1.6944590258639094e+00  -1.7346914181917010e+00  -1.7720401209596475e+00  -1.8065352436436228e+00  -1.8382245003598905e+00  -1.8671730287913537e+00  -1.8934631194186666e+00  -1.9171938527213421e+00  -1.9384806423933587e+00  -1.9574546830749793e+00  -1.9742623016402141e+00  -1.9890642116985351e+00  -2.0020346716689623e+00  -2.0133605475612795e+00  -2.0232402824474205e+00  -2.0318827755183397e+00  -2.0395061745878476e+00  -2.0463365869129304e+00  -2.0526067142357403e+00  -2.0585544189998104e+00  -2.0644212297345970e+00  -2.0704507946195165e+00  -2.0768872932116151e+00  -2.0839738172301008e+00  -2.0919507321161195e+00  -2.1010540318081805e+00  -2.1115136997740303e+00  -2.1235520898017599e+00  -2.1373823403614827e+00  -2.1532068364914760e+00  -2.1712157331293946e+00  -2.1915855535931956e+00  -2.2144778765143869e+00  -2.2400381239380533e+00  -2.2683944625335757e+00  -2.2996568289142600e+00  -2.3339160889540813e+00  -2.3712433397296020e+00  -2.4116893613222521e+00  -2.4552842242106503e+00  </DataArray> 
</PointData> 
</Piece>
</UnstructuredGrid>
</VTKFile>