<?xml version="1.0"?>
<VTKFile type="UnstructuredGrid"  version="0.1"  >
<UnstructuredGrid>
<Piece  NumberOfPoints="65" NumberOfCells="64">
<Points>
<DataArray  type="Float64"  NumberOfComponents="3"  format="ascii">0 0 0  0.0625 0 0  0.125 0 0  0.1875 0 0  0.25 0 0  0.3125 0 0  0.375 0 0  0.4375 0 0  0.5 0 0  0.5625 0 0  0.625 0 0  0.6875 0 0  0.75 0 0  0.8125 0 0  0.875 0 0  0.9375 0 0  1 0 0  1.0625 0 0  1.125 0 0  1.1875 0 0  1.25 0 0  1.3125 0 0  1.375 0 0  1.4375 0 0  1.5 0 0  1.5625 0 0  1.625 0 0  1.6875 0 0  1.75 0 0  1.8125 0 0  1.875 0 0  1.9375 0 0  2 0 0  2.0625 0 0  2.125 0 0  2.1875 0 0  2.25 0 0  2.3125 0 0  2.375 0 0  2.4375 0 0  2.5 0 0  2.5625 0 0  2.625 0 0  2.6875 0 0  2.75 0 0  2.8125 0 0  2.875 0 0  2.9375 0 0  3 0 0  3.0625 0 0  3.125 0 0  3.1875 0 0  3.25 0 0  3.3125 0 0  3.375 0 0  3.4375 0 0  3.5 0 0  3.5625 0 0  3.625 0 0  3.6875 0 0  3.75 0 0  3.8125 0 0  3.875 0 0  3.9375 0 0  4 0 0  </DataArray>
</Points>
<Cells>
<DataArray  type="UInt32"  Name="connectivity"  format="ascii">0 1  1 2  2 3  3 4  4 5  5 6  6 7  7 8  8 9  9 10  10 11  11 12  12 13  13 14  14 15  15 16  16 17  17 18  18 19  19 20  20 21  21 22  22 23  23 24  24 25  25 26  26 27  27 28  28 29  29 30  30 31  31 32  32 33  33 34  34 35  35 36  36 37  37 38  38 39  39 40  40 41  41 42  42 43  43 44  44 45  45 46  46 47  47 48  48 49  49 50  50 51  51 52  52 53  53 54  54 55  55 56  56 57  57 58  58 59  59 60  60 61  61 62  62 63  63 64  </DataArray>
<DataArray  type="UInt32"  Name="offsets"  format="ascii">2 4 6 8 10 12 14 16 18 20 22 24 26 28 30 32 34 36 38 40 42 44 46 48 50 52 54 56 58 60 62 64 66 68 70 72 74 76 78 80 82 84 86 88 90 92 94 96 98 100 102 104 106 108 110 112 114 116 118 120 122 124 126 128 </DataArray>
<DataArray  type="UInt8"  Name="types"  format="ascii">3 3 3 3 3 3 3 3 3 3 3 3 3 3 3 3 3 3 3 3 3 3 3 3 3 3 3 3 3 3 3 3 3 3 3 3 3 3 3 3 3 3 3 3 3 3 3 3 3 3 3 3 3 3 3 3 3 3 3 3 3 3 3 3 </DataArray>
</Cells>
<PointData  Scalars="U"> 
<DataArray  type="Float64"  Name="U"  format="ascii">0.0000000000000000e+00  2.1297635270649126e-01  4.1919155041997369e-01  6.1864559333592717e-01  8.1133848162173905e-01  9.9727021541948313e-01  1.1764407948486593e+00  1.3488502200088537e+00  1.5144984909822741e+00  1.6733856078361273e+00  1.8255115706248164e+00  1.9708763793919388e+00  2.1094800341720750e+00  2.2413225349923658e+00  2.3664038818738913e+00  2.4847240748328465e+00  2.5962831138815381e+00  2.7010809990292151e+00  2.7991177302827479e+00  2.8903933076471859e+00  2.9749077311261951e+00  3.0526610007224071e+00  3.1236531164376862e+00  3.1878840782733411e+00  3.2453538862302733e+00  3.2960625403091033e+00  3.3400100405102413e+00  3.3771963868339605e+00  3.4076215792804296e+00  3.4312856178497468e+00  3.4481885025419445e+00  3.4583302333570063e+00  3.4617108102948482e+00  3.4583302333553090e+00  3.4481885025381103e+00  3.4312856178428031e+00  3.4076215792686799e+00  3.3771963868146528e+00  3.3400100404790756e+00  3.2960625402594839e+00  3.2453538861522464e+00  3.1878840781520834e+00  3.1236531162514161e+00  3.0526610004395098e+00  2.9749077307013505e+00  2.8903933070162204e+00  2.7991177293558800e+00  2.7010809976823360e+00  2.5962831119451089e+00  2.4847240720779613e+00  2.3664038779950518e+00  2.2413225295864940e+00  2.1094800267133178e+00  1.9708763692018831e+00  1.8255115568377998e+00  1.6733855893594729e+00  1.5144984664514123e+00  1.3488501877374925e+00  1.1764407527743843e+00  9.9727016104539357e-01  8.1133841195497625e-01  6.1864550482418301e-01  4.1919143888729848e-01  2.1297621328989799e-01  -1.7291148296629726e-07  </DataArray> 
</PointData> 
</Piece>
</UnstructuredGrid>
</VTKFile>