<?xml version="1.0"?>
<VTKFile type="UnstructuredGrid"  version="0.1"  >
<UnstructuredGrid>
<Piece  NumberOfPoints="65" NumberOfCells="64">
<Points>
<DataArray  type="Float64"  NumberOfComponents="3"  format="ascii">0 0 0  0.0625 0 0  0.125 0 0  0.1875 0 0  0.25 0 0  0.3125 0 0  0.375 0 0  0.4375 0 0  0.5 0 0  0.5625 0 0  0.625 0 0  0.6875 0 0  0.75 0 0  0.8125 0 0  0.875 0 0  0.9375 0 0  1 0 0  1.0625 0 0  1.125 0 0  1.1875 0 0  1.25 0 0  1.3125 0 0  1.375 0 0  1.4375 0 0  1.5 0 0  1.5625 0 0  1.625 0 0  1.6875 0 0  1.75 0 0  1.8125 0 0  1.875 0 0  1.9375 0 0  2 0 0  2.0625 0 0  2.125 0 0  2.1875 0 0  2.25 0 0  2.3125 0 0  2.375 0 0  2.4375 0 0  2.5 0 0  2.5625 0 0  2.625 0 0  2.6875 0 0  2.75 0 0  2.8125 0 0  2.875 0 0  2.9375 0 0  3 0 0  3.0625 0 0  3.125 0 0  3.1875 0 0  3.25 0 0  3.3125 0 0  3.375 0 0  3.4375 0 0  3.5 0 0  3.5625 0 0  3.625 0 0  3.6875 0 0  3.75 0 0  3.8125 0 0  3.875 0 0  3.9375 0 0  4 0 0  </DataArray>
</Points>
<Cells>
<DataArray  type="UInt32"  Name="connectivity"  format="ascii">0 1  1 2  2 3  3 4  4 5  5 6  6 7  7 8  8 9  9 10  10 11  11 12  12 13  13 14  14 15  15 16  16 17  17 18  18 19  19 20  20 21  21 22  22 23  23 24  24 25  25 26  26 27  27 28  28 29  29 30  30 31  31 32  32 33  33 34  34 35  35 36  36 37  37 38  38 39  39 40  40 41  41 42  42 43  43 44  44 45  45 46  46 47  47 48  48 49  49 50  50 51  51 52  52 53  53 54  54 55  55 56  56 57  57 58  58 59  59 60  60 61  61 62  62 63  63 64  </DataArray>
<DataArray  type="UInt32"  Name="offsets"  format="ascii">2 4 6 8 10 12 14 16 18 20 22 24 26 28 30 32 34 36 38 40 42 44 46 48 50 52 54 56 58 60 62 64 66 68 70 72 74 76 78 80 82 84 86 88 90 92 94 96 98 100 102 104 106 108 110 112 114 116 118 120 122 124 126 128 </DataArray>
<DataArray  type="UInt8"  Name="types"  format="ascii">3 3 3 3 3 3 3 3 3 3 3 3 3 3 3 3 3 3 3 3 3 3 3 3 3 3 3 3 3 3 3 3 3 3 3 3 3 3 3 3 3 3 3 3 3 3 3 3 3 3 3 3 3 3 3 3 3 3 3 3 3 3 3 3 </DataArray>
</Cells>
<PointData  Scalars="U"> 
<DataArray  type="Float64"  Name="U"  format="ascii">0.0000000000000000e+00  9.1242770753708596e-02  1.7958894221387442e-01  2.6503851472622481e-01  3.4759148862170591e-01  4.2724786421635103e-01  5.0400764181119329e-01  5.7787082169221882e-01  6.4883740413035451e-01  7.1690738938148912e-01  7.8208077768651996e-01  8.4435756927142269e-01  9.0373776434733954e-01  9.6022136311068107e-01  1.0138083657432397e+00  1.0644987724123061e+00  1.1122925832707908e+00  1.1571897984573427e+00  1.1991904180964614e+00  1.2382944422986044e+00  1.2745018711602805e+00  1.3078127047641319e+00  1.3382269431789984e+00  1.3657445864599662e+00  1.3903656346483970e+00  1.4120900877719356e+00  1.4309179458444976e+00  1.4468492088662381e+00  1.4598838768234972e+00  1.4700219496887246e+00  1.4772634274203891e+00  1.4816083099628663e+00  1.4830565972463154e+00  1.4816082891865385e+00  1.4772633856848330e+00  1.4700218866278363e+00  1.4598837918873673e+00  1.4468491013202700e+00  1.4309178147682611e+00  1.4120899320577891e+00  1.3903654529999090e+00  1.3657443773901756e+00  1.3382267050085672e+00  1.3078124356194365e+00  1.2745015689715009e+00  1.2382941047978795e+00  1.1991900428161750e+00  1.1571893827286110e+00  1.1122921242222357e+00  1.0644982669691831e+00  1.0138078106270136e+00  9.6022075483912717e-01  9.0373709923525658e-01  8.4435684343204920e-01  7.8207998703373416e-01  7.1690652963288271e-01  6.4883647081126172e-01  5.7786981014078487e-01  5.0400654718455795e-01  4.2724668149802353e-01  3.4759021263020057e-01  2.6503714012502111e-01  1.7958746352275681e-01  9.1241182361539150e-02  -1.7038210374498866e-06  </DataArray> 
</PointData> 
</Piece>
</UnstructuredGrid>
</VTKFile>