<?xml version="1.0"?>
<VTKFile type="UnstructuredGrid"  version="0.1"  >
<UnstructuredGrid>
<Piece  NumberOfPoints="65" NumberOfCells="64">
<Points>
<DataArray  type="Float64"  NumberOfComponents="3"  format="ascii">0 0 0  0.0625 0 0  0.125 0 0  0.1875 0 0  0.25 0 0  0.3125 0 0  0.375 0 0  0.4375 0 0  0.5 0 0  0.5625 0 0  0.625 0 0  0.6875 0 0  0.75 0 0  0.8125 0 0  0.875 0 0  0.9375 0 0  1 0 0  1.0625 0 0  1.125 0 0  1.1875 0 0  1.25 0 0  1.3125 0 0  1.375 0 0  1.4375 0 0  1.5 0 0  1.5625 0 0  1.625 0 0  1.6875 0 0  1.75 0 0  1.8125 0 0  1.875 0 0  1.9375 0 0  2 0 0  2.0625 0 0  2.125 0 0  2.1875 0 0  2.25 0 0  2.3125 0 0  2.375 0 0  2.4375 0 0  2.5 0 0  2.5625 0 0  2.625 0 0  2.6875 0 0  2.75 0 0  2.8125 0 0  2.875 0 0  2.9375 0 0  3 0 0  3.0625 0 0  3.125 0 0  3.1875 0 0  3.25 0 0  3.3125 0 0  3.375 0 0  3.4375 0 0  3.5 0 0  3.5625 0 0  3.625 0 0  3.6875 0 0  3.75 0 0  3.8125 0 0  3.875 0 0  3.9375 0 0  4 0 0  </DataArray>
</Points>
<Cells>
<DataArray  type="UInt32"  Name="connectivity"  format="ascii">0 1  1 2  2 3  3 4  4 5  5 6  6 7  7 8  8 9  9 10  10 11  11 12  12 13  13 14  14 15  15 16  16 17  17 18  18 19  19 20  20 21  21 22  22 23  23 24  24 25  25 26  26 27  27 28  28 29  29 30  30 31  31 32  32 33  33 34  34 35  35 36  36 37  37 38  38 39  39 40  40 41  41 42  42 43  43 44  44 45  45 46  46 47  47 48  48 49  49 50  50 51  51 52  52 53  53 54  54 55  55 56  56 57  57 58  58 59  59 60  60 61  61 62  62 63  63 64  </DataArray>
<DataArray  type="UInt32"  Name="offsets"  format="ascii">2 4 6 8 10 12 14 16 18 20 22 24 26 28 30 32 34 36 38 40 42 44 46 48 50 52 54 56 58 60 62 64 66 68 70 72 74 76 78 80 82 84 86 88 90 92 94 96 98 100 102 104 106 108 110 112 114 116 118 120 122 124 126 128 </DataArray>
<DataArray  type="UInt8"  Name="types"  format="ascii">3 3 3 3 3 3 3 3 3 3 3 3 3 3 3 3 3 3 3 3 3 3 3 3 3 3 3 3 3 3 3 3 3 3 3 3 3 3 3 3 3 3 3 3 3 3 3 3 3 3 3 3 3 3 3 3 3 3 3 3 3 3 3 3 </DataArray>
</Cells>
<PointData  Scalars="U"> 
<DataArray  type="Float64"  Name="U"  format="ascii">0.0000000000000000e+00  -3.5239674845137667e-02  -7.4380460394983333e-02  -1.1691015994939559e-01  -1.6232355190307651e-01  -2.1012576143444889e-01  -2.5983541883831102e-01  -3.1098754497678777e-01  -3.6313611382817229e-01  -4.1585625312917246e-01  -4.6874605613805448e-01  -5.2142799007532448e-01  -5.7354989931263256e-01  -6.2478561340262140e-01  -6.7483518115573982e-01  -7.2342476183719506e-01  -7.7030621293268453e-01  -8.1525642066685189e-01  -8.5807642450021326e-01  -8.9859039021167630e-01  -9.3664448800000755e-01  -9.7210573246737686e-01  -1.0048608405722255e+00  -1.0348151618573880e+00  -1.0618917326603554e+00  -1.0860305027510575e+00  -1.1071877790248126e+00  -1.1253359265498288e+00  -1.1404633624085896e+00  -1.1525748722928351e+00  -1.1616922735651531e+00  -1.1678554412929760e+00  -1.1711237053741868e+00  -1.1715776170894654e+00  -1.1693210720491785e+00  -1.1644837634331233e+00  -1.1572239246339531e+00  -1.1477313040316721e+00  -1.1362302969378548e+00  -1.1229831412365150e+00  -1.1082930645999363e+00  -1.0925072532598661e+00  -1.0760194962369893e+00  -1.0592723458877271e+00  -1.0427586269155513e+00  -1.0270221229204248e+00  -1.0126572733457944e+00  -1.0003077253592165e+00  -9.9066360550371746e-01  -9.8445740521354597e-01  -9.8245841233864051e-01  -9.8546566694637538e-01  -9.9429947255400608e-01  -1.0097915516929852e+00  -1.0327739948880912e+00  -1.0640672118911065e+00  -1.1044671501974734e+00  -1.1547320952510363e+00  -1.2155694061719817e+00  -1.2876225675219579e+00  -1.3714589492889968e+00  -1.4675586624100869e+00  -1.5763048751125035e+00  -1.6979759164837713e+00  -1.8327394393121443e+00  </DataArray> 
</PointData> 
</Piece>
</UnstructuredGrid>
</VTKFile>