<?xml version="1.0"?>
<VTKFile type="UnstructuredGrid"  version="0.1"  >
<UnstructuredGrid>
<Piece  NumberOfPoints="65" NumberOfCells="64">
<Points>
<DataArray  type="Float64"  NumberOfComponents="3"  format="ascii">0 0 0  0.0625 0 0  0.125 0 0  0.1875 0 0  0.25 0 0  0.3125 0 0  0.375 0 0  0.4375 0 0  0.5 0 0  0.5625 0 0  0.625 0 0  0.6875 0 0  0.75 0 0  0.8125 0 0  0.875 0 0  0.9375 0 0  1 0 0  1.0625 0 0  1.125 0 0  1.1875 0 0  1.25 0 0  1.3125 0 0  1.375 0 0  1.4375 0 0  1.5 0 0  1.5625 0 0  1.625 0 0  1.6875 0 0  1.75 0 0  1.8125 0 0  1.875 0 0  1.9375 0 0  2 0 0  2.0625 0 0  2.125 0 0  2.1875 0 0  2.25 0 0  2.3125 0 0  2.375 0 0  2.4375 0 0  2.5 0 0  2.5625 0 0  2.625 0 0  2.6875 0 0  2.75 0 0  2.8125 0 0  2.875 0 0  2.9375 0 0  3 0 0  3.0625 0 0  3.125 0 0  3.1875 0 0  3.25 0 0  3.3125 0 0  3.375 0 0  3.4375 0 0  3.5 0 0  3.5625 0 0  3.625 0 0  3.6875 0 0  3.75 0 0  3.8125 0 0  3.875 0 0  3.9375 0 0  4 0 0  </DataArray>
</Points>
<Cells>
<DataArray  type="UInt32"  Name="connectivity"  format="ascii">0 1  1 2  2 3  3 4  4 5  5 6  6 7  7 8  8 9  9 10  10 11  11 12  12 13  13 14  14 15  15 16  16 17  17 18  18 19  19 20  20 21  21 22  22 23  23 24  24 25  25 26  26 27  27 28  28 29  29 30  30 31  31 32  32 33  33 34  34 35  35 36  36 37  37 38  38 39  39 40  40 41  41 42  42 43  43 44  44 45  45 46  46 47  47 48  48 49  49 50  50 51  51 52  52 53  53 54  54 55  55 56  56 57  57 58  58 59  59 60  60 61  61 62  62 63  63 64  </DataArray>
<DataArray  type="UInt32"  Name="offsets"  format="ascii">2 4 6 8 10 12 14 16 18 20 22 24 26 28 30 32 34 36 38 40 42 44 46 48 50 52 54 56 58 60 62 64 66 68 70 72 74 76 78 80 82 84 86 88 90 92 94 96 98 100 102 104 106 108 110 112 114 116 118 120 122 124 126 128 </DataArray>
<DataArray  type="UInt8"  Name="types"  format="ascii">3 3 3 3 3 3 3 3 3 3 3 3 3 3 3 3 3 3 3 3 3 3 3 3 3 3 3 3 3 3 3 3 3 3 3 3 3 3 3 3 3 3 3 3 3 3 3 3 3 3 3 3 3 3 3 3 3 3 3 3 3 3 3 3 </DataArray>
</Cells>
<PointData  Scalars="U"> 
<DataArray  type="Float64"  Name="U"  format="ascii">0.0000000000000000e+00  -1.9971981415189102e-03  -9.5965910844355920e-03  -2.1893544860405876e-02  -3.8023621158370290e-02  -5.7179308091768626e-02  -7.8623047213563044e-02  -1.0169600107477611e-01  -1.2582244128045622e-01  -1.5051003641946820e-01  -1.7534663321657654e-01  -1.9999432422585786e-01  -2.2418167526512162e-01  -2.4769495886633364e-01  -2.7036913262692736e-01  -2.9207914544484154e-01  -3.1273198108415801e-01  -3.3225968242758763e-01  -3.5061345807079969e-01  -3.6775886421864140e-01  -3.8367198075927073e-01  -3.9833645758252112e-01  -4.1174128957402151e-01  -4.2387917924338681e-01  -4.3474535801786940e-01  -4.4433675538785689e-01  -4.5265142530176661e-01  -4.5968815885376862e-01  -4.6544622995772861e-01  -4.6992523583789381e-01  -4.7312500692514792e-01  -4.7504557170675282e-01  -4.7568717213095701e-01  -4.7505033546291747e-01  -4.7313602042295522e-01  -4.6994587069231791e-01  -4.6548262944200069e-01  -4.5975079673358399e-01  -4.5275764996814238e-01  -4.4451479845068836e-01  -4.3504050838976455e-01  -4.2436311450727254e-01  -4.1252592622784795e-01  -3.9959413279984790e-01  -3.8566429858808421e-01  -3.7087709442686861e-01  -3.5543390080406795e-01  -3.3961780215304260e-01  -3.2381922171495725e-01  -3.0856597899170790e-01  -2.9455685789052199e-01  -2.8269685694286095e-01  -2.7413120845495365e-01  -2.7027412304748261e-01  -2.7282723413399212e-01  -2.8378213792803703e-01  -3.0540152705520457e-01  -3.4017444194596091e-01  -3.9074324285749695e-01  -4.5980297649195367e-01  -5.4997757560241167e-01  -6.6368125131047284e-01  -8.0297681262338449e-01  -9.6944474170157247e-01  -1.1640770784507015e+00  </DataArray> 
</PointData> 
</Piece>
</UnstructuredGrid>
</VTKFile>