<?xml version="1.0"?>
<VTKFile type="UnstructuredGrid"  version="0.1"  >
<UnstructuredGrid>
<Piece  NumberOfPoints="65" NumberOfCells="64">
<Points>
<DataArray  type="Float64"  NumberOfComponents="3"  format="ascii">0 0 0  0.0625 0 0  0.125 0 0  0.1875 0 0  0.25 0 0  0.3125 0 0  0.375 0 0  0.4375 0 0  0.5 0 0  0.5625 0 0  0.625 0 0  0.6875 0 0  0.75 0 0  0.8125 0 0  0.875 0 0  0.9375 0 0  1 0 0  1.0625 0 0  1.125 0 0  1.1875 0 0  1.25 0 0  1.3125 0 0  1.375 0 0  1.4375 0 0  1.5 0 0  1.5625 0 0  1.625 0 0  1.6875 0 0  1.75 0 0  1.8125 0 0  1.875 0 0  1.9375 0 0  2 0 0  2.0625 0 0  2.125 0 0  2.1875 0 0  2.25 0 0  2.3125 0 0  2.375 0 0  2.4375 0 0  2.5 0 0  2.5625 0 0  2.625 0 0  2.6875 0 0  2.75 0 0  2.8125 0 0  2.875 0 0  2.9375 0 0  3 0 0  3.0625 0 0  3.125 0 0  3.1875 0 0  3.25 0 0  3.3125 0 0  3.375 0 0  3.4375 0 0  3.5 0 0  3.5625 0 0  3.625 0 0  3.6875 0 0  3.75 0 0  3.8125 0 0  3.875 0 0  3.9375 0 0  4 0 0  </DataArray>
</Points>
<Cells>
<DataArray  type="UInt32"  Name="connectivity"  format="ascii">0 1  1 2  2 3  3 4  4 5  5 6  6 7  7 8  8 9  9 10  10 11  11 12  12 13  13 14  14 15  15 16  16 17  17 18  18 19  19 20  20 21  21 22  22 23  23 24  24 25  25 26  26 27  27 28  28 29  29 30  30 31  31 32  32 33  33 34  34 35  35 36  36 37  37 38  38 39  39 40  40 41  41 42  42 43  43 44  44 45  45 46  46 47  47 48  48 49  49 50  50 51  51 52  52 53  53 54  54 55  55 56  56 57  57 58  58 59  59 60  60 61  61 62  62 63  63 64  </DataArray>
<DataArray  type="UInt32"  Name="offsets"  format="ascii">2 4 6 8 10 12 14 16 18 20 22 24 26 28 30 32 34 36 38 40 42 44 46 48 50 52 54 56 58 60 62 64 66 68 70 72 74 76 78 80 82 84 86 88 90 92 94 96 98 100 102 104 106 108 110 112 114 116 118 120 122 124 126 128 </DataArray>
<DataArray  type="UInt8"  Name="types"  format="ascii">3 3 3 3 3 3 3 3 3 3 3 3 3 3 3 3 3 3 3 3 3 3 3 3 3 3 3 3 3 3 3 3 3 3 3 3 3 3 3 3 3 3 3 3 3 3 3 3 3 3 3 3 3 3 3 3 3 3 3 3 3 3 3 3 </DataArray>
</Cells>
<PointData  Scalars="U"> 
<DataArray  type="Float64"  Name="U"  format="ascii">0.0000000000000000e+00  -2.6171876828877200e-02  -5.6730489605521212e-02  -9.1101608468133297e-02  -1.2872089329339120e-01  -1.6903858448257919e-01  -2.1152381352620028e-01  -2.5566843269879880e-01  -3.0099028381289689e-01  -3.4703584922468989e-01  -3.9338225289260292e-01  -4.3963860389198867e-01  -4.8544669812240682e-01  -5.3048111491820382e-01  -5.7444876303666359e-01  -6.1708794447849002e-01  -6.5816701451603876e-01  -6.9748272217613061e-01  -7.3485831751468733e-01  -7.7014151080951820e-01  -8.0320236491920149e-01  -8.3393119623555623e-01  -8.6223655264925314e-01  -8.8804332947823761e-01  -9.1129107702308787e-01  -9.3193254683809823e-01  -9.4993251831653902e-01  -9.6526694298594362e-01  -9.7792244101333803e-01  -9.8789618266254386e-01  -9.9519618647401820e-01  -9.9984206522775021e-01  -1.0018662496238726e+00  -1.0013157172712150e+00  -9.9825425012250180e-01  -9.9276523601384026e-01  -9.8495501856553003e-01  -9.7495678360451876e-01  -9.6293494890755726e-01  -9.4908999718212594e-01  -9.3366365996300860e-01  -9.1694432318984120e-01  -8.9927248493064582e-01  -8.8104605396339108e-01  -8.6272523730506046e-01  -8.4483672845230207e-01  -8.2797687968164613e-01  -8.1281352509197413e-01  -8.0008611993758327e-01  -7.9060387956432721e-01  -7.8524164049134104e-01  -7.8493322825459100e-01  -7.9066220138519239e-01  -8.0344994637304123e-01  -8.2434122076993421e-01  -8.5438737492485417e-01  -8.9462761975840011e-01  -9.4606883977063305e-01  -1.0096645677923881e+00  -1.0862938315857764e+00  -1.1767406439329362e+00  -1.2816749306910344e+00  -1.4016356712254932e+00  -1.5370169614082365e+00  -1.6880576029747150e+00  </DataArray> 
</PointData> 
</Piece>
</UnstructuredGrid>
</VTKFile>