<?xml version="1.0"?>
<VTKFile type="UnstructuredGrid"  version="0.1"  >
<UnstructuredGrid>
<Piece  NumberOfPoints="65" NumberOfCells="64">
<Points>
<DataArray  type="Float64"  NumberOfComponents="3"  format="ascii">0 0 0  0.0625 0 0  0.125 0 0  0.1875 0 0  0.25 0 0  0.3125 0 0  0.375 0 0  0.4375 0 0  0.5 0 0  0.5625 0 0  0.625 0 0  0.6875 0 0  0.75 0 0  0.8125 0 0  0.875 0 0  0.9375 0 0  1 0 0  1.0625 0 0  1.125 0 0  1.1875 0 0  1.25 0 0  1.3125 0 0  1.375 0 0  1.4375 0 0  1.5 0 0  1.5625 0 0  1.625 0 0  1.6875 0 0  1.75 0 0  1.8125 0 0  1.875 0 0  1.9375 0 0  2 0 0  2.0625 0 0  2.125 0 0  2.1875 0 0  2.25 0 0  2.3125 0 0  2.375 0 0  2.4375 0 0  2.5 0 0  2.5625 0 0  2.625 0 0  2.6875 0 0  2.75 0 0  2.8125 0 0  2.875 0 0  2.9375 0 0  3 0 0  3.0625 0 0  3.125 0 0  3.1875 0 0  3.25 0 0  3.3125 0 0  3.375 0 0  3.4375 0 0  3.5 0 0  3.5625 0 0  3.625 0 0  3.6875 0 0  3.75 0 0  3.8125 0 0  3.875 0 0  3.9375 0 0  4 0 0  </DataArray>
</Points>
<Cells>
<DataArray  type="UInt32"  Name="connectivity"  format="ascii">0 1  1 2  2 3  3 4  4 5  5 6  6 7  7 8  8 9  9 10  10 11  11 12  12 13  13 14  14 15  15 16  16 17  17 18  18 19  19 20  20 21  21 22  22 23  23 24  24 25  25 26  26 27  27 28  28 29  29 30  30 31  31 32  32 33  33 34  34 35  35 36  36 37  37 38  38 39  39 40  40 41  41 42  42 43  43 44  44 45  45 46  46 47  47 48  48 49  49 50  50 51  51 52  52 53  53 54  54 55  55 56  56 57  57 58  58 59  59 60  60 61  61 62  62 63  63 64  </DataArray>
<DataArray  type="UInt32"  Name="offsets"  format="ascii">2 4 6 8 10 12 14 16 18 20 22 24 26 28 30 32 34 36 38 40 42 44 46 48 50 52 54 56 58 60 62 64 66 68 70 72 74 76 78 80 82 84 86 88 90 92 94 96 98 100 102 104 106 108 110 112 114 116 118 120 122 124 126 128 </DataArray>
<DataArray  type="UInt8"  Name="types"  format="ascii">3 3 3 3 3 3 3 3 3 3 3 3 3 3 3 3 3 3 3 3 3 3 3 3 3 3 3 3 3 3 3 3 3 3 3 3 3 3 3 3 3 3 3 3 3 3 3 3 3 3 3 3 3 3 3 3 3 3 3 3 3 3 3 3 </DataArray>
</Cells>
<PointData  Scalars="U"> 
<DataArray  type="Float64"  Name="U"  format="ascii">0.0000000000000000e+00  -2.5506309197501401e-03  -6.0848406904748251e-03  -1.0467774423529030e-02  -1.5564009725550706e-02  -2.1241453182467399e-02  -2.7374469583473744e-02  -3.3846140204344607e-02  -4.0549715798334565e-02  -4.7389359696569905e-02  -5.4280303118939013e-02  -6.1148553044348394e-02  -6.7930282554627311e-02  -7.4571021573792390e-02  -8.1024732646727646e-02  -8.7252846284680011e-02  -9.3223312953915588e-02  -9.8909701162679720e-02  -1.0429036830598723e-01  -1.0934771638536293e-01  -1.1406753571684382e-01  -1.1843843992637361e-01  -1.2245138329249224e-01  -1.2609925751648882e-01  -1.2937656421600829e-01  -1.3227914851107556e-01  -1.3480399345178357e-01  -1.3694907217814947e-01  -1.3871324476210709e-01  -1.4009620487039603e-01  -1.4109847669211703e-01  -1.4172145368108574e-01  -1.4196749063724828e-01  -1.4184005455868068e-01  -1.4134393240088677e-01  -1.4048551445544646e-01  -1.3927316510515639e-01  -1.3771768803802739e-01  -1.3583291187768734e-01  -1.3363641484890429e-01  -1.3115040688890284e-01  -1.2840279793675805e-01  -1.2542847398737411e-01  -1.2227080876692738e-01  -1.1898342535064702e-01  -1.1563221534616530e-01  -1.1229763286826813e-01  -1.0907722173945014e-01  -1.0608832440187846e-01  -1.0347091083766329e-01  -1.0139035882362447e-01  -1.0003998548773642e-01  -9.9643044462101954e-02  -1.0045381511155477e-01  -1.0275732014630386e-01  -1.0686702952455981e-01  -1.1311997602788948e-01  -1.2186859806195452e-01  -1.3346861396031112e-01  -1.4826254154358234e-01  -1.6655876795833813e-01  -1.8860677570051881e-01  -2.1456991473282189e-01  -2.4449832907022018e-01  -2.7830588745240298e-01  </DataArray> 
</PointData> 
</Piece>
</UnstructuredGrid>
</VTKFile>