<?xml version="1.0"?>
<VTKFile type="UnstructuredGrid"  version="0.1"  >
<UnstructuredGrid>
<Piece  NumberOfPoints="65" NumberOfCells="64">
<Points>
<DataArray  type="Float64"  NumberOfComponents="3"  format="ascii">0 0 0  0.0625 0 0  0.125 0 0  0.1875 0 0  0.25 0 0  0.3125 0 0  0.375 0 0  0.4375 0 0  0.5 0 0  0.5625 0 0  0.625 0 0  0.6875 0 0  0.75 0 0  0.8125 0 0  0.875 0 0  0.9375 0 0  1 0 0  1.0625 0 0  1.125 0 0  1.1875 0 0  1.25 0 0  1.3125 0 0  1.375 0 0  1.4375 0 0  1.5 0 0  1.5625 0 0  1.625 0 0  1.6875 0 0  1.75 0 0  1.8125 0 0  1.875 0 0  1.9375 0 0  2 0 0  2.0625 0 0  2.125 0 0  2.1875 0 0  2.25 0 0  2.3125 0 0  2.375 0 0  2.4375 0 0  2.5 0 0  2.5625 0 0  2.625 0 0  2.6875 0 0  2.75 0 0  2.8125 0 0  2.875 0 0  2.9375 0 0  3 0 0  3.0625 0 0  3.125 0 0  3.1875 0 0  3.25 0 0  3.3125 0 0  3.375 0 0  3.4375 0 0  3.5 0 0  3.5625 0 0  3.625 0 0  3.6875 0 0  3.75 0 0  3.8125 0 0  3.875 0 0  3.9375 0 0  4 0 0  </DataArray>
</Points>
<Cells>
<DataArray  type="UInt32"  Name="connectivity"  format="ascii">0 1  1 2  2 3  3 4  4 5  5 6  6 7  7 8  8 9  9 10  10 11  11 12  12 13  13 14  14 15  15 16  16 17  17 18  18 19  19 20  20 21  21 22  22 23  23 24  24 25  25 26  26 27  27 28  28 29  29 30  30 31  31 32  32 33  33 34  34 35  35 36  36 37  37 38  38 39  39 40  40 41  41 42  42 43  43 44  44 45  45 46  46 47  47 48  48 49  49 50  50 51  51 52  52 53  53 54  54 55  55 56  56 57  57 58  58 59  59 60  60 61  61 62  62 63  63 64  </DataArray>
<DataArray  type="UInt32"  Name="offsets"  format="ascii">2 4 6 8 10 12 14 16 18 20 22 24 26 28 30 32 34 36 38 40 42 44 46 48 50 52 54 56 58 60 62 64 66 68 70 72 74 76 78 80 82 84 86 88 90 92 94 96 98 100 102 104 106 108 110 112 114 116 118 120 122 124 126 128 </DataArray>
<DataArray  type="UInt8"  Name="types"  format="ascii">3 3 3 3 3 3 3 3 3 3 3 3 3 3 3 3 3 3 3 3 3 3 3 3 3 3 3 3 3 3 3 3 3 3 3 3 3 3 3 3 3 3 3 3 3 3 3 3 3 3 3 3 3 3 3 3 3 3 3 3 3 3 3 3 </DataArray>
</Cells>
<PointData  Scalars="U"> 
<DataArray  type="Float64"  Name="U"  format="ascii">0.0000000000000000e+00  -9.0323154711680967e-03  -2.3331261625667905e-02  -4.2138298441459165e-02  -6.4718161033424731e-02  -9.0369208235805076e-02  -1.1843223691714694e-01  -1.4829744190917712e-01  -1.7940933773621889e-01  -2.1126959853666158e-01  -2.4343790319860148e-01  -2.7553098266508996e-01  -3.0722014797500907e-01  -3.3822762728110328e-01  -3.6832205811252677e-01  -3.9731347107210124e-01  -4.2504806881080892e-01  -4.5140305651557033e-01  -4.7628172442515082e-01  -4.9960892548462549e-01  -5.2132703731613061e-01  -5.4139245083353527e-01  -5.5977259012293967e-01  -5.7644344035337047e-01  -5.9138754212812594e-01  -6.0459240079828080e-01  -6.1604925644356823e-01  -6.2575216302360503e-01  -6.3369733230397740e-01  -6.3988270854243368e-01  -6.4430775290693543e-01  -6.4697343187095746e-01  -6.4788242137965668e-01  -6.4703955860244011e-01  -6.4445259585566683e-01  -6.4013333695678598e-01  -6.3409926468162137e-01  -6.2637579834807344e-01  -6.1699935112560800e-01  -6.0602138451210930e-01  -5.9351367805361599e-01  -5.7957503966190571e-01  -5.6433966805515301e-01  -5.4798733494449126e-01  -5.3075547129196288e-01  -5.1295311097231611e-01  -4.9497646111891314e-01  -4.7732563123248734e-01  -4.6062177044686459e-01  -4.4562355178284696e-01  -4.3324163260657067e-01  -4.2454945160126673e-01  -4.2078854258598825e-01  -4.2336650615095545e-01  -4.3384592899001073e-01  -4.5392291239418636e-01  -4.8539447706929584e-01  -5.3011493149885458e-01  -5.8994226987886866e-01  -6.6667671259016115e-01  -7.6199449917858941e-01  -8.7738085952271672e-01  -1.0140665978204886e+00  -1.1729728278492486e+00  -1.3546680445624166e+00  </DataArray> 
</PointData> 
</Piece>
</UnstructuredGrid>
</VTKFile>