<?xml version="1.0"?>
<VTKFile type="UnstructuredGrid"  version="0.1"  >
<UnstructuredGrid>
<Piece  NumberOfPoints="65" NumberOfCells="64">
<Points>
<DataArray  type="Float64"  NumberOfComponents="3"  format="ascii">0 0 0  0.0625 0 0  0.125 0 0  0.1875 0 0  0.25 0 0  0.3125 0 0  0.375 0 0  0.4375 0 0  0.5 0 0  0.5625 0 0  0.625 0 0  0.6875 0 0  0.75 0 0  0.8125 0 0  0.875 0 0  0.9375 0 0  1 0 0  1.0625 0 0  1.125 0 0  1.1875 0 0  1.25 0 0  1.3125 0 0  1.375 0 0  1.4375 0 0  1.5 0 0  1.5625 0 0  1.625 0 0  1.6875 0 0  1.75 0 0  1.8125 0 0  1.875 0 0  1.9375 0 0  2 0 0  2.0625 0 0  2.125 0 0  2.1875 0 0  2.25 0 0  2.3125 0 0  2.375 0 0  2.4375 0 0  2.5 0 0  2.5625 0 0  2.625 0 0  2.6875 0 0  2.75 0 0  2.8125 0 0  2.875 0 0  2.9375 0 0  3 0 0  3.0625 0 0  3.125 0 0  3.1875 0 0  3.25 0 0  3.3125 0 0  3.375 0 0  3.4375 0 0  3.5 0 0  3.5625 0 0  3.625 0 0  3.6875 0 0  3.75 0 0  3.8125 0 0  3.875 0 0  3.9375 0 0  4 0 0  </DataArray>
</Points>
<Cells>
<DataArray  type="UInt32"  Name="connectivity"  format="ascii">0 1  1 2  2 3  3 4  4 5  5 6  6 7  7 8  8 9  9 10  10 11  11 12  12 13  13 14  14 15  15 16  16 17  17 18  18 19  19 20  20 21  21 22  22 23  23 24  24 25  25 26  26 27  27 28  28 29  29 30  30 31  31 32  32 33  33 34  34 35  35 36  36 37  37 38  38 39  39 40  40 41  41 42  42 43  43 44  44 45  45 46  46 47  47 48  48 49  49 50  50 51  51 52  52 53  53 54  54 55  55 56  56 57  57 58  58 59  59 60  60 61  61 62  62 63  63 64  </DataArray>
<DataArray  type="UInt32"  Name="offsets"  format="ascii">2 4 6 8 10 12 14 16 18 20 22 24 26 28 30 32 34 36 38 40 42 44 46 48 50 52 54 56 58 60 62 64 66 68 70 72 74 76 78 80 82 84 86 88 90 92 94 96 98 100 102 104 106 108 110 112 114 116 118 120 122 124 126 128 </DataArray>
<DataArray  type="UInt8"  Name="types"  format="ascii">3 3 3 3 3 3 3 3 3 3 3 3 3 3 3 3 3 3 3 3 3 3 3 3 3 3 3 3 3 3 3 3 3 3 3 3 3 3 3 3 3 3 3 3 3 3 3 3 3 3 3 3 3 3 3 3 3 3 3 3 3 3 3 3 </DataArray>
</Cells>
<PointData  Scalars="U"> 
<DataArray  type="Float64"  Name="U"  format="ascii">0.0000000000000000e+00  -2.5529810808940828e-02  -5.5480195348465072e-02  -8.9271948393365608e-02  -1.2633601934425648e-01  -1.6611832115330624e-01  -2.0808414219586877e-01  -2.5172205648726687e-01  -2.9654724946843786e-01  -3.4210420120696661e-01  -3.8796869483596563e-01  -4.3374914393246133e-01  -4.7908725697095328e-01  -5.2365807882088111e-01  -5.6716946759530273e-01  -6.0936107941384432e-01  -6.5000294354800825e-01  -6.8889371601222260e-01  -7.2585870126502194e-01  -7.6074772982943206e-01  -7.9343297502727161e-01  -8.2380678543734376e-01  -8.5177960194548064e-01  -8.7727802013145850e-01  -9.0024305092122037e-01  -9.2062862547927327e-01  -9.3840038462111386e-01  -9.5353478880342890e-01  -9.6601858202303281e-01  -9.7584864155162510e-01  -9.8303224498931707e-01  -9.8758778609222098e-01  -9.8954597051265958e-01  -9.8895152114326312e-01  -9.8586541923817372e-01  -9.8036770090709147e-01  -9.7256081796967153e-01  -9.6257355664711897e-01  -9.5056548648086625e-01  -9.3673188483985392e-01  -9.2130904946889081e-01  -9.0457987334077361e-01  -8.8687951383963937e-01  -8.6860094395648346e-01  -8.5020012936565525e-01  -8.3220053527740634e-01  -8.1519663465519321e-01  -7.9985606888176863e-01  -7.8692010739063367e-01  -7.7720206791010382e-01  -7.7158339675992493e-01  -7.7100717082985160e-01  -7.7646886956532890e-01  -7.8900437466335505e-01  -8.0967528331427352e-01  -8.3955176169405743e-01  -8.7969331113022409e-01  -9.3112796062108927e-01  -9.9483052608968647e-01  -1.0717006788280610e+00  -1.1625416338739105e+00  -1.2680402962022230e+00  -1.3887496838522142e+00  -1.5250743808933322e+00  -1.6772596614549982e+00  </DataArray> 
</PointData> 
</Piece>
</UnstructuredGrid>
</VTKFile>