<?xml version="1.0"?>
<VTKFile type="UnstructuredGrid"  version="0.1"  >
<UnstructuredGrid>
<Piece  NumberOfPoints="65" NumberOfCells="64">
<Points>
<DataArray  type="Float64"  NumberOfComponents="3"  format="ascii">0 0 0  0.0625 0 0  0.125 0 0  0.1875 0 0  0.25 0 0  0.3125 0 0  0.375 0 0  0.4375 0 0  0.5 0 0  0.5625 0 0  0.625 0 0  0.6875 0 0  0.75 0 0  0.8125 0 0  0.875 0 0  0.9375 0 0  1 0 0  1.0625 0 0  1.125 0 0  1.1875 0 0  1.25 0 0  1.3125 0 0  1.375 0 0  1.4375 0 0  1.5 0 0  1.5625 0 0  1.625 0 0  1.6875 0 0  1.75 0 0  1.8125 0 0  1.875 0 0  1.9375 0 0  2 0 0  2.0625 0 0  2.125 0 0  2.1875 0 0  2.25 0 0  2.3125 0 0  2.375 0 0  2.4375 0 0  2.5 0 0  2.5625 0 0  2.625 0 0  2.6875 0 0  2.75 0 0  2.8125 0 0  2.875 0 0  2.9375 0 0  3 0 0  3.0625 0 0  3.125 0 0  3.1875 0 0  3.25 0 0  3.3125 0 0  3.375 0 0  3.4375 0 0  3.5 0 0  3.5625 0 0  3.625 0 0  3.6875 0 0  3.75 0 0  3.8125 0 0  3.875 0 0  3.9375 0 0  4 0 0  </DataArray>
</Points>
<Cells>
<DataArray  type="UInt32"  Name="connectivity"  format="ascii">0 1  1 2  2 3  3 4  4 5  5 6  6 7  7 8  8 9  9 10  10 11  11 12  12 13  13 14  14 15  15 16  16 17  17 18  18 19  19 20  20 21  21 22  22 23  23 24  24 25  25 26  26 27  27 28  28 29  29 30  30 31  31 32  32 33  33 34  34 35  35 36  36 37  37 38  38 39  39 40  40 41  41 42  42 43  43 44  44 45  45 46  46 47  47 48  48 49  49 50  50 51  51 52  52 53  53 54  54 55  55 56  56 57  57 58  58 59  59 60  60 61  61 62  62 63  63 64  </DataArray>
<DataArray  type="UInt32"  Name="offsets"  format="ascii">2 4 6 8 10 12 14 16 18 20 22 24 26 28 30 32 34 36 38 40 42 44 46 48 50 52 54 56 58 60 62 64 66 68 70 72 74 76 78 80 82 84 86 88 90 92 94 96 98 100 102 104 106 108 110 112 114 116 118 120 122 124 126 128 </DataArray>
<DataArray  type="UInt8"  Name="types"  format="ascii">3 3 3 3 3 3 3 3 3 3 3 3 3 3 3 3 3 3 3 3 3 3 3 3 3 3 3 3 3 3 3 3 3 3 3 3 3 3 3 3 3 3 3 3 3 3 3 3 3 3 3 3 3 3 3 3 3 3 3 3 3 3 3 3 </DataArray>
</Cells>
<PointData  Scalars="U"> 
<DataArray  type="Float64"  Name="U"  format="ascii">0.0000000000000000e+00  1.2867299483132272e-01  2.5326112978026050e-01  3.7376440518904852e-01  4.9018282138020480e-01  6.0251637865690366e-01  7.1076507730340566e-01  8.1492891758553687e-01  9.1500789975120767e-01  1.0110020240309663e+00  1.1029112906385770e+00  1.1907356997716123e+00  1.2744752516120610e+00  1.3541299463269310e+00  1.4296997840688521e+00  1.5011847649766621e+00  1.5685848891759770e+00  1.6319001567797335e+00  1.6911305678886970e+00  1.7462761225919348e+00  1.7973368209672458e+00  1.8443126630815392e+00  1.8872036489911594e+00  1.9260097787421586e+00  1.9607310523705006e+00  1.9913674699022068e+00  2.0179190313534323e+00  2.0403857367304719e+00  2.0587675860296977e+00  2.0730645792374243e+00  2.0832767163297015e+00  2.0894039972720355e+00  2.0914464220190423e+00  2.0894039905140307e+00  2.0832767026885208e+00  2.0730645584616991e+00  2.0587675577398206e+00  2.0403857004155515e+00  2.0179189863672757e+00  1.9913674154583534e+00  1.9607309875363572e+00  1.9260097024322800e+00  1.8872035599597365e+00  1.8443125599141632e+00  1.7973367020720257e+00  1.7462759861900528e+00  1.6911304120045065e+00  1.6318999792305011e+00  1.5685846875613827e+00  1.5011845366681946e+00  1.4296995261992260e+00  1.3541296557796745e+00  1.2744749250114253e+00  1.1907353334729684e+00  1.1029108807194616e+00  1.0110015662829579e+00  9.1500738967280126e-01  8.1492835037620970e-01  7.1076444785904869e-01  6.0251568156680579e-01  4.9018205092577088e-01  3.7376355534442718e-01  2.5326019421505636e-01  1.2867196691555477e-01  -1.1271885381051677e-06  </DataArray> 
</PointData> 
</Piece>
</UnstructuredGrid>
</VTKFile>