<?xml version="1.0"?>
<VTKFile type="UnstructuredGrid"  version="0.1"  >
<UnstructuredGrid>
<Piece  NumberOfPoints="65" NumberOfCells="64">
<Points>
<DataArray  type="Float64"  NumberOfComponents="3"  format="ascii">0 0 0  0.0625 0 0  0.125 0 0  0.1875 0 0  0.25 0 0  0.3125 0 0  0.375 0 0  0.4375 0 0  0.5 0 0  0.5625 0 0  0.625 0 0  0.6875 0 0  0.75 0 0  0.8125 0 0  0.875 0 0  0.9375 0 0  1 0 0  1.0625 0 0  1.125 0 0  1.1875 0 0  1.25 0 0  1.3125 0 0  1.375 0 0  1.4375 0 0  1.5 0 0  1.5625 0 0  1.625 0 0  1.6875 0 0  1.75 0 0  1.8125 0 0  1.875 0 0  1.9375 0 0  2 0 0  2.0625 0 0  2.125 0 0  2.1875 0 0  2.25 0 0  2.3125 0 0  2.375 0 0  2.4375 0 0  2.5 0 0  2.5625 0 0  2.625 0 0  2.6875 0 0  2.75 0 0  2.8125 0 0  2.875 0 0  2.9375 0 0  3 0 0  3.0625 0 0  3.125 0 0  3.1875 0 0  3.25 0 0  3.3125 0 0  3.375 0 0  3.4375 0 0  3.5 0 0  3.5625 0 0  3.625 0 0  3.6875 0 0  3.75 0 0  3.8125 0 0  3.875 0 0  3.9375 0 0  4 0 0  </DataArray>
</Points>
<Cells>
<DataArray  type="UInt32"  Name="connectivity"  format="ascii">0 1  1 2  2 3  3 4  4 5  5 6  6 7  7 8  8 9  9 10  10 11  11 12  12 13  13 14  14 15  15 16  16 17  17 18  18 19  19 20  20 21  21 22  22 23  23 24  24 25  25 26  26 27  27 28  28 29  29 30  30 31  31 32  32 33  33 34  34 35  35 36  36 37  37 38  38 39  39 40  40 41  41 42  42 43  43 44  44 45  45 46  46 47  47 48  48 49  49 50  50 51  51 52  52 53  53 54  54 55  55 56  56 57  57 58  58 59  59 60  60 61  61 62  62 63  63 64  </DataArray>
<DataArray  type="UInt32"  Name="offsets"  format="ascii">2 4 6 8 10 12 14 16 18 20 22 24 26 28 30 32 34 36 38 40 42 44 46 48 50 52 54 56 58 60 62 64 66 68 70 72 74 76 78 80 82 84 86 88 90 92 94 96 98 100 102 104 106 108 110 112 114 116 118 120 122 124 126 128 </DataArray>
<DataArray  type="UInt8"  Name="types"  format="ascii">3 3 3 3 3 3 3 3 3 3 3 3 3 3 3 3 3 3 3 3 3 3 3 3 3 3 3 3 3 3 3 3 3 3 3 3 3 3 3 3 3 3 3 3 3 3 3 3 3 3 3 3 3 3 3 3 3 3 3 3 3 3 3 3 </DataArray>
</Cells>
<PointData  Scalars="U"> 
<DataArray  type="Float64"  Name="U"  format="ascii">0.0000000000000000e+00  1.4242804100363041e-01  2.8033455424278225e-01  4.1371954004889616e-01  5.4258299873195714e-01  6.6692493058109092e-01  7.8674533586521833e-01  9.0204421483376229e-01  1.0128215677173908e+00  1.1190773947287971e+00  1.2208116960634958e+00  1.3180244719006369e+00  1.4107157224038169e+00  1.4988854477218920e+00  1.5825336479897723e+00  1.6616603233291982e+00  1.7362654738494874e+00  1.8063490996482445e+00  1.8719112008120327e+00  1.9329517774169893e+00  1.9894708295293968e+00  2.0414683572061842e+00  2.0889443604953719e+00  2.1318988394364404e+00  2.1703317940606319e+00  2.2042432243911714e+00  2.2336331304434052e+00  2.2585015122248624e+00  2.2788483697352238e+00  2.2946737029662119e+00  2.3059775119013799e+00  2.3127597965158269e+00  2.3150205567758060e+00  2.3127597926382588e+00  2.3059775040502526e+00  2.2946736909483358e+00  2.2788483532578074e+00  2.2585014908919168e+00  2.2336331037509760e+00  2.2042431917214254e+00  2.1703317546748178e+00  2.1318987924667741e+00  2.0889443049358825e+00  2.0414682919025799e+00  1.9894707531680165e+00  1.9329516885129119e+00  1.8719110976964390e+00  1.8063489804551272e+00  1.7362653365018215e+00  1.6616601655247063e+00  1.5825334671864169e+00  1.4988852411232556e+00  1.4107154869445384e+00  1.3180242042320829e+00  1.2208113925398660e+00  1.1190770513938679e+00  1.0128211802921145e+00  9.0204377870494656e-01  7.8674484607552020e-01  6.6692438182056024e-01  5.4258238533137249e-01  4.1371885597512786e-01  2.8033379309642187e-01  1.4242719601911513e-01  -9.3595154574695993e-07  </DataArray> 
</PointData> 
</Piece>
</UnstructuredGrid>
</VTKFile>