<?xml version="1.0"?>
<VTKFile type="UnstructuredGrid"  version="0.1"  >
<UnstructuredGrid>
<Piece  NumberOfPoints="65" NumberOfCells="64">
<Points>
<DataArray  type="Float64"  NumberOfComponents="3"  format="ascii">0 0 0  0.0625 0 0  0.125 0 0  0.1875 0 0  0.25 0 0  0.3125 0 0  0.375 0 0  0.4375 0 0  0.5 0 0  0.5625 0 0  0.625 0 0  0.6875 0 0  0.75 0 0  0.8125 0 0  0.875 0 0  0.9375 0 0  1 0 0  1.0625 0 0  1.125 0 0  1.1875 0 0  1.25 0 0  1.3125 0 0  1.375 0 0  1.4375 0 0  1.5 0 0  1.5625 0 0  1.625 0 0  1.6875 0 0  1.75 0 0  1.8125 0 0  1.875 0 0  1.9375 0 0  2 0 0  2.0625 0 0  2.125 0 0  2.1875 0 0  2.25 0 0  2.3125 0 0  2.375 0 0  2.4375 0 0  2.5 0 0  2.5625 0 0  2.625 0 0  2.6875 0 0  2.75 0 0  2.8125 0 0  2.875 0 0  2.9375 0 0  3 0 0  3.0625 0 0  3.125 0 0  3.1875 0 0  3.25 0 0  3.3125 0 0  3.375 0 0  3.4375 0 0  3.5 0 0  3.5625 0 0  3.625 0 0  3.6875 0 0  3.75 0 0  3.8125 0 0  3.875 0 0  3.9375 0 0  4 0 0  </DataArray>
</Points>
<Cells>
<DataArray  type="UInt32"  Name="connectivity"  format="ascii">0 1  1 2  2 3  3 4  4 5  5 6  6 7  7 8  8 9  9 10  10 11  11 12  12 13  13 14  14 15  15 16  16 17  17 18  18 19  19 20  20 21  21 22  22 23  23 24  24 25  25 26  26 27  27 28  28 29  29 30  30 31  31 32  32 33  33 34  34 35  35 36  36 37  37 38  38 39  39 40  40 41  41 42  42 43  43 44  44 45  45 46  46 47  47 48  48 49  49 50  50 51  51 52  52 53  53 54  54 55  55 56  56 57  57 58  58 59  59 60  60 61  61 62  62 63  63 64  </DataArray>
<DataArray  type="UInt32"  Name="offsets"  format="ascii">2 4 6 8 10 12 14 16 18 20 22 24 26 28 30 32 34 36 38 40 42 44 46 48 50 52 54 56 58 60 62 64 66 68 70 72 74 76 78 80 82 84 86 88 90 92 94 96 98 100 102 104 106 108 110 112 114 116 118 120 122 124 126 128 </DataArray>
<DataArray  type="UInt8"  Name="types"  format="ascii">3 3 3 3 3 3 3 3 3 3 3 3 3 3 3 3 3 3 3 3 3 3 3 3 3 3 3 3 3 3 3 3 3 3 3 3 3 3 3 3 3 3 3 3 3 3 3 3 3 3 3 3 3 3 3 3 3 3 3 3 3 3 3 3 </DataArray>
</Cells>
<PointData  Scalars="U"> 
<DataArray  type="Float64"  Name="U"  format="ascii">0.0000000000000000e+00  -2.7088145770171301e-04  -1.7353215849776262e-03  -4.1637018005918668e-03  -7.3454665640775236e-03  -1.1095153679398015e-02  -1.5254050601222108e-02  -1.9689257529051554e-02  -2.4291374752873126e-02  -2.8971585974781448e-02  -3.3658609104789079e-02  -3.8295784531962092e-02  -4.2838445844199227e-02  -4.7251636150309383e-02  -5.1508168818224988e-02  -5.5587017913943673e-02  -5.9472005058334117e-02  -6.3150737257596873e-02  -6.6613762015670930e-02  -6.9853898352507909e-02  -7.2865710864055300e-02  -7.5645104307591055e-02  -7.8189006874510775e-02  -8.0495127123198049e-02  -8.2561773497256311e-02  -8.4387714044530826e-02  -8.5972073477911526e-02  -8.7314263523457544e-02  -8.8413930843627711e-02  -8.9270926923138677e-02  -8.9885299793473011e-02  -9.0257296608973026e-02  -9.0387386650384649e-02  -9.0276307617605869e-02  -8.9925128904066828e-02  -8.9335347193373341e-02  -8.8509021686237283e-02  -8.7448950177403909e-02  -8.6158910301977781e-02  -8.4643982371688201e-02  -8.2910970616594332e-02  -8.0968962114734325e-02  -7.8830058611498485e-02  -7.6510330112611269e-02  -7.4031053205553823e-02  -7.1420304410094906e-02  -6.8715013043517945e-02  -6.5963569841449451e-02  -6.3229113926480437e-02  -6.0593665115292808e-02  -5.8163226936260810e-02  -5.6074011412145353e-02  -5.4499919997767814e-02  -5.3661331101578232e-02  -5.3835142389524131e-02  -5.5365753700462143e-02  -5.8676402770854195e-02  -6.4279666124886448e-02  -7.2785043388878604e-02  -8.4900367079200803e-02  -1.0142189352965793e-01  -1.2320537334488416e-01  -1.5110676123243702e-01  -1.8587639900706412e-01  -2.2798415872030267e-01  </DataArray> 
</PointData> 
</Piece>
</UnstructuredGrid>
</VTKFile>