<?xml version="1.0"?>
<VTKFile type="UnstructuredGrid"  version="0.1"  >
<UnstructuredGrid>
<Piece  NumberOfPoints="65" NumberOfCells="64">
<Points>
<DataArray  type="Float64"  NumberOfComponents="3"  format="ascii">0 0 0  0.0625 0 0  0.125 0 0  0.1875 0 0  0.25 0 0  0.3125 0 0  0.375 0 0  0.4375 0 0  0.5 0 0  0.5625 0 0  0.625 0 0  0.6875 0 0  0.75 0 0  0.8125 0 0  0.875 0 0  0.9375 0 0  1 0 0  1.0625 0 0  1.125 0 0  1.1875 0 0  1.25 0 0  1.3125 0 0  1.375 0 0  1.4375 0 0  1.5 0 0  1.5625 0 0  1.625 0 0  1.6875 0 0  1.75 0 0  1.8125 0 0  1.875 0 0  1.9375 0 0  2 0 0  2.0625 0 0  2.125 0 0  2.1875 0 0  2.25 0 0  2.3125 0 0  2.375 0 0  2.4375 0 0  2.5 0 0  2.5625 0 0  2.625 0 0  2.6875 0 0  2.75 0 0  2.8125 0 0  2.875 0 0  2.9375 0 0  3 0 0  3.0625 0 0  3.125 0 0  3.1875 0 0  3.25 0 0  3.3125 0 0  3.375 0 0  3.4375 0 0  3.5 0 0  3.5625 0 0  3.625 0 0  3.6875 0 0  3.75 0 0  3.8125 0 0  3.875 0 0  3.9375 0 0  4 0 0  </DataArray>
</Points>
<Cells>
<DataArray  type="UInt32"  Name="connectivity"  format="ascii">0 1  1 2  2 3  3 4  4 5  5 6  6 7  7 8  8 9  9 10  10 11  11 12  12 13  13 14  14 15  15 16  16 17  17 18  18 19  19 20  20 21  21 22  22 23  23 24  24 25  25 26  26 27  27 28  28 29  29 30  30 31  31 32  32 33  33 34  34 35  35 36  36 37  37 38  38 39  39 40  40 41  41 42  42 43  43 44  44 45  45 46  46 47  47 48  48 49  49 50  50 51  51 52  52 53  53 54  54 55  55 56  56 57  57 58  58 59  59 60  60 61  61 62  62 63  63 64  </DataArray>
<DataArray  type="UInt32"  Name="offsets"  format="ascii">2 4 6 8 10 12 14 16 18 20 22 24 26 28 30 32 34 36 38 40 42 44 46 48 50 52 54 56 58 60 62 64 66 68 70 72 74 76 78 80 82 84 86 88 90 92 94 96 98 100 102 104 106 108 110 112 114 116 118 120 122 124 126 128 </DataArray>
<DataArray  type="UInt8"  Name="types"  format="ascii">3 3 3 3 3 3 3 3 3 3 3 3 3 3 3 3 3 3 3 3 3 3 3 3 3 3 3 3 3 3 3 3 3 3 3 3 3 3 3 3 3 3 3 3 3 3 3 3 3 3 3 3 3 3 3 3 3 3 3 3 3 3 3 3 </DataArray>
</Cells>
<PointData  Scalars="U"> 
<DataArray  type="Float64"  Name="U"  format="ascii">0.0000000000000000e+00  -3.0537440519245389e-02  -6.5229722392837336e-02  -1.0353420256981777e-01  -1.4491655552671867e-01  -1.8885475695707496e-01  -2.3484278145834125e-01  -2.8239393631667287e-01  -3.3104376749737502e-01  -3.8035248998948912e-01  -4.2990691190566804e-01  -4.7932183935829115e-01  -5.2824096630679362e-01  -5.7633726956886255e-01  -6.2331294340275567e-01  -6.6889892004641616e-01  -7.1285403205838893e-01  -7.5496387913612018e-01  -7.9503946634277733e-01  -8.3291568255049719e-01  -8.6844968771517583e-01  -9.0151927572222779e-01  -9.3202127641004007e-01  -9.5987005641446543e-01  -9.8499617407430839e-01  -1.0073452391171447e+00  -1.0268770234358016e+00  -1.0435648650838185e+00  -1.0573954036536524e+00  -1.0683686813163362e+00  -1.0764986397344887e+00  -1.0818140384416264e+00  -1.0843598146532623e+00  -1.0841988973293111e+00  -1.0814144791208216e+00  -1.0761127381226283e+00  -1.0684259867273773e+00  -1.0585162071018013e+00  -1.0465789118682234e+00  -1.0328472447364947e+00  -1.0175962096856881e+00  -1.0011468897954632e+00  -9.8387048930265975e-01  -9.6619200659361715e-01  -9.4859332362314797e-01  -9.3161548087280721e-01  -9.1585989869810314e-01  -9.0198830795261031e-01  -8.9072116702121773e-01  -8.8283437026162015e-01  -8.7915409506756259e-01  -8.8054969118273740e-01  -8.8792458535776186e-01  -9.0220525472621171e-01  -9.2432841008971478e-01  -9.5522662140372494e-01  -9.9581270715356573e-01  -1.0469632915604981e+00  -1.1095020031314000e+00  -1.1841828397653003e+00  -1.2716742550153479e+00  -1.3725445238933116e+00  -1.4872489230032149e+00  -1.6161192087292291e+00  -1.7593558004268597e+00  </DataArray> 
</PointData> 
</Piece>
</UnstructuredGrid>
</VTKFile>