<?xml version="1.0"?>
<VTKFile type="UnstructuredGrid"  version="0.1"  >
<UnstructuredGrid>
<Piece  NumberOfPoints="65" NumberOfCells="64">
<Points>
<DataArray  type="Float64"  NumberOfComponents="3"  format="ascii">0 0 0  0.0625 0 0  0.125 0 0  0.1875 0 0  0.25 0 0  0.3125 0 0  0.375 0 0  0.4375 0 0  0.5 0 0  0.5625 0 0  0.625 0 0  0.6875 0 0  0.75 0 0  0.8125 0 0  0.875 0 0  0.9375 0 0  1 0 0  1.0625 0 0  1.125 0 0  1.1875 0 0  1.25 0 0  1.3125 0 0  1.375 0 0  1.4375 0 0  1.5 0 0  1.5625 0 0  1.625 0 0  1.6875 0 0  1.75 0 0  1.8125 0 0  1.875 0 0  1.9375 0 0  2 0 0  2.0625 0 0  2.125 0 0  2.1875 0 0  2.25 0 0  2.3125 0 0  2.375 0 0  2.4375 0 0  2.5 0 0  2.5625 0 0  2.625 0 0  2.6875 0 0  2.75 0 0  2.8125 0 0  2.875 0 0  2.9375 0 0  3 0 0  3.0625 0 0  3.125 0 0  3.1875 0 0  3.25 0 0  3.3125 0 0  3.375 0 0  3.4375 0 0  3.5 0 0  3.5625 0 0  3.625 0 0  3.6875 0 0  3.75 0 0  3.8125 0 0  3.875 0 0  3.9375 0 0  4 0 0  </DataArray>
</Points>
<Cells>
<DataArray  type="UInt32"  Name="connectivity"  format="ascii">0 1  1 2  2 3  3 4  4 5  5 6  6 7  7 8  8 9  9 10  10 11  11 12  12 13  13 14  14 15  15 16  16 17  17 18  18 19  19 20  20 21  21 22  22 23  23 24  24 25  25 26  26 27  27 28  28 29  29 30  30 31  31 32  32 33  33 34  34 35  35 36  36 37  37 38  38 39  39 40  40 41  41 42  42 43  43 44  44 45  45 46  46 47  47 48  48 49  49 50  50 51  51 52  52 53  53 54  54 55  55 56  56 57  57 58  58 59  59 60  60 61  61 62  62 63  63 64  </DataArray>
<DataArray  type="UInt32"  Name="offsets"  format="ascii">2 4 6 8 10 12 14 16 18 20 22 24 26 28 30 32 34 36 38 40 42 44 46 48 50 52 54 56 58 60 62 64 66 68 70 72 74 76 78 80 82 84 86 88 90 92 94 96 98 100 102 104 106 108 110 112 114 116 118 120 122 124 126 128 </DataArray>
<DataArray  type="UInt8"  Name="types"  format="ascii">3 3 3 3 3 3 3 3 3 3 3 3 3 3 3 3 3 3 3 3 3 3 3 3 3 3 3 3 3 3 3 3 3 3 3 3 3 3 3 3 3 3 3 3 3 3 3 3 3 3 3 3 3 3 3 3 3 3 3 3 3 3 3 3 </DataArray>
</Cells>
<PointData  Scalars="U"> 
<DataArray  type="Float64"  Name="U"  format="ascii">0.0000000000000000e+00  1.2182513387443443e-01  2.3978280016584466e-01  3.5387299922009768e-01  4.6409573136422555e-01  5.7045099690669610e-01  6.7293879613773833e-01  7.7155912932971560e-01  8.6631199673753789e-01  9.5719739859910957e-01  1.0442153351357997e+00  1.1273658065529351e+00  1.2066488130402999e+00  1.2820643547726436e+00  1.3536124319101852e+00  1.4212930445991077e+00  1.4851061929720373e+00  1.5450518771485033e+00  1.6011300972353673e+00  1.6533408533272203e+00  1.7016841455067451e+00  1.7461599738450315e+00  1.7867683384018482e+00  1.8235092392258616e+00  1.8563826763548001e+00  1.8853886498155679e+00  1.9105271596242888e+00  1.9317982057862997e+00  1.9492017882960748e+00  1.9627379071370930e+00  1.9724065622816394e+00  1.9782077536905476e+00  1.9801414813128815e+00  1.9782077450855613e+00  1.9724065449329329e+00  1.9627378807662894e+00  1.9492017524833480e+00  1.9317981599676832e+00  1.9105271030881275e+00  1.8853885816981513e+00  1.8563825956352131e+00  1.8235091447201099e+00  1.7867682287563218e+00  1.7461598475293652e+00  1.7016840008061664e+00  1.6533406883344701e+00  1.6011299098422853e+00  1.5450516650373864e+00  1.4851059536068845e+00  1.4212927752168738e+00  1.3536121295121719e+00  1.2820640161161634e+00  1.2066484346307569e+00  1.1273653846364722e+00  1.0442148656926633e+00  9.5719687733789072e-01  8.6631141909045051e-01  7.7155849044906888e-01  6.7293809089376999e-01  5.7045021988692091e-01  4.6409487687446099e-01  3.5387206128731358e-01  2.3978177254298563e-01  1.2182401004735215e-01  -1.2268033783970596e-06  </DataArray> 
</PointData> 
</Piece>
</UnstructuredGrid>
</VTKFile>