<?xml version="1.0"?>
<VTKFile type="UnstructuredGrid"  version="0.1"  >
<UnstructuredGrid>
<Piece  NumberOfPoints="65" NumberOfCells="64">
<Points>
<DataArray  type="Float64"  NumberOfComponents="3"  format="ascii">0 0 0  0.0625 0 0  0.125 0 0  0.1875 0 0  0.25 0 0  0.3125 0 0  0.375 0 0  0.4375 0 0  0.5 0 0  0.5625 0 0  0.625 0 0  0.6875 0 0  0.75 0 0  0.8125 0 0  0.875 0 0  0.9375 0 0  1 0 0  1.0625 0 0  1.125 0 0  1.1875 0 0  1.25 0 0  1.3125 0 0  1.375 0 0  1.4375 0 0  1.5 0 0  1.5625 0 0  1.625 0 0  1.6875 0 0  1.75 0 0  1.8125 0 0  1.875 0 0  1.9375 0 0  2 0 0  2.0625 0 0  2.125 0 0  2.1875 0 0  2.25 0 0  2.3125 0 0  2.375 0 0  2.4375 0 0  2.5 0 0  2.5625 0 0  2.625 0 0  2.6875 0 0  2.75 0 0  2.8125 0 0  2.875 0 0  2.9375 0 0  3 0 0  3.0625 0 0  3.125 0 0  3.1875 0 0  3.25 0 0  3.3125 0 0  3.375 0 0  3.4375 0 0  3.5 0 0  3.5625 0 0  3.625 0 0  3.6875 0 0  3.75 0 0  3.8125 0 0  3.875 0 0  3.9375 0 0  4 0 0  </DataArray>
</Points>
<Cells>
<DataArray  type="UInt32"  Name="connectivity"  format="ascii">0 1  1 2  2 3  3 4  4 5  5 6  6 7  7 8  8 9  9 10  10 11  11 12  12 13  13 14  14 15  15 16  16 17  17 18  18 19  19 20  20 21  21 22  22 23  23 24  24 25  25 26  26 27  27 28  28 29  29 30  30 31  31 32  32 33  33 34  34 35  35 36  36 37  37 38  38 39  39 40  40 41  41 42  42 43  43 44  44 45  45 46  46 47  47 48  48 49  49 50  50 51  51 52  52 53  53 54  54 55  55 56  56 57  57 58  58 59  59 60  60 61  61 62  62 63  63 64  </DataArray>
<DataArray  type="UInt32"  Name="offsets"  format="ascii">2 4 6 8 10 12 14 16 18 20 22 24 26 28 30 32 34 36 38 40 42 44 46 48 50 52 54 56 58 60 62 64 66 68 70 72 74 76 78 80 82 84 86 88 90 92 94 96 98 100 102 104 106 108 110 112 114 116 118 120 122 124 126 128 </DataArray>
<DataArray  type="UInt8"  Name="types"  format="ascii">3 3 3 3 3 3 3 3 3 3 3 3 3 3 3 3 3 3 3 3 3 3 3 3 3 3 3 3 3 3 3 3 3 3 3 3 3 3 3 3 3 3 3 3 3 3 3 3 3 3 3 3 3 3 3 3 3 3 3 3 3 3 3 3 </DataArray>
</Cells>
<PointData  Scalars="U"> 
<DataArray  type="Float64"  Name="U"  format="ascii">0.0000000000000000e+00  1.4467095921987669e-01  2.8474918696623647e-01  4.2023468356833266e-01  5.5112744933368474e-01  6.7742748454871327e-01  7.9913478947943406e-01  9.1624936437220195e-01  1.0287712094544961e+00  1.1367003249357339e+00  1.2400367110081083e+00  1.3387803678474344e+00  1.4329312956139981e+00  1.5224894944534004e+00  1.6074549644973852e+00  1.6878277058646438e+00  1.7636077186615924e+00  1.8347950029831075e+00  1.9013895589132199e+00  1.9633913865257593e+00  2.0208004858849402e+00  2.0736168570458875e+00  2.1218405000550984e+00  2.1654714149508250e+00  2.2045096017633967e+00  2.2389550605154467e+00  2.2688077912220694e+00  2.2940677938908869e+00  2.3147350685220287e+00  2.3308096151080240e+00  2.3422914336335992e+00  2.3491805240753880e+00  2.3514768864015454e+00  2.3491805205712701e+00  2.3422914265342372e+00  2.3308096042299402e+00  2.3147350535869484e+00  2.2940677745220808e+00  2.2688077669394988e+00  2.2389550307297337e+00  2.2045095657686469e+00  2.1654713719163330e+00  2.1218404490159810e+00  2.0736167968927006e+00  2.0208004153523271e+00  1.9633913041802189e+00  1.9013894631400734e+00  1.8347948919727541e+00  1.7636075903951798e+00  1.6878275580992632e+00  1.6074547947509479e+00  1.5224892999893365e+00  1.4329310734259584e+00  1.3387801146441740e+00  1.2400364231987548e+00  1.1366999986156487e+00  1.0287708403919558e+00  9.1624894799612910e-01  7.9913432086841996e-01  6.7742695842158274e-01  5.5112686004184752e-01  4.2023402509017826e-01  2.8474845290381573e-01  1.4467014279811510e-01  -9.0593132314975447e-07  </DataArray> 
</PointData> 
</Piece>
</UnstructuredGrid>
</VTKFile>