<?xml version="1.0"?>
<VTKFile type="UnstructuredGrid"  version="0.1"  >
<UnstructuredGrid>
<Piece  NumberOfPoints="335" NumberOfCells="604">
<Points>
<DataArray  type="Float64"  NumberOfComponents="3"  format="ascii">0 2 0  0 0 0  4 0 0  4 2 0  2 0 0  2 2 0  1 0 0  1 2 0  0 1 0  4 1 0  3 2 0  3 0 0  1.5 1 0  3 1 0  0.75 0.75 0  2.25 1.25 0  0.5625 1.4375 0  4 0.5 0  3.5 0 0  4 1.5 0  3.5 2 0  2.5 0 0  2.035714285714286 0.6428571428571428 0  1.5 0 0  3.416666666666667 0.5833333333333334 0  1.135869565217391 1.442934782608696 0  1.75 1.5 0  2.611201298701299 0.5693993506493507 0  3.5 1.25 0  1.25 0.5 0  2.5 2 0  2.75 1.5 0  0.5 0 0  0 0.5 0  0 1.5 0  0.5 2 0  1.5 2 0  3.196428571428572 1.589285714285714 0  1.75 0.3363095238095237 0  3.016488529250673 0.4286986695828525 0  1.075849239304906 1.022452282085282 0  2.25 0.308531746031746 0  0.4375 0.4375 0  2.375 1.625 0  0.359375 0.828125 0  0.875 0.375 0  2.579589900409902 0.9887697012297049 0  1.875 1.125 0  3.625 1.625 0  3.738095238095238 0.75 0  0.61328125 1.08203125 0  0.283203125 1.216238839285714 0  0.75 1.743055555555556 0  1.575774875167458 0.6496125624162709 0  0.30625 1.69375 0  3.677083333333333 0.3229166666666667 0  3.347222222222222 0.9305555555555556 0  2.75 0 0  1.426285733982903 1.650642866991451 0  1.441247178754399 1.322840772184865 0  3.307719501506081 0.2701504049770592 0  2.343107299193003 0.7600674782727458 0  2.041666666666667 1.666666666666667 0  0.8721051282065269 1.266059980878688 0  3.017857142857143 1.321428571428571 0  0.25 0 0  3.124094139334942 0.7176929188969303 0  2.133642051592332 0.9740738452230051 0  2.744869578259833 0.3003660856503637 0  2.795144003253926 0.7941412087465988 0  1.143043947544775 1.739786699825343 0  1.808516825619384 0.8349817990159853 0  2.006944444444445 1.388888888888889 0  2.545410099590098 1.284179800819803 0  2.625 1.75 0  1.049150760695094 0.7233015213901878 0  1.458640484663616 0.2918202423318081 0  2.938492063492064 1.718253968253968 0  1.75 2 0  1.125 0.25 0  3.708891369047619 1.042782738095238 0  3.75 1.375 0  0 0.25 0  2.785310692237909 1.162254590955012 0  1.323940624311342 0.7684841149566988 0  2.25 2 0  0.75 0 0  0.6335227272727273 0.2471590909090909 0  4 1.75 0  3.75 2 0  3.210459183673469 1.149518140589569 0  3.398166023166023 1.757722007722008 0  1.996445105820106 0.2584325396825397 0  2.75 2 0  1.25 2 0  3.25 0 0  3.75 0 0  1.25 0 0  0.75 2 0  0 1.25 0  4 0.75 0  0 0.75 0  2.25 0 0  1.75 0 0  0.25 2 0  0 1.75 0  4 0.25 0  1.669430850940762 1.75 0  4 1.25 0  3.25 2 0  2.498111965552158 0.3454883412923062 0  0.8003899450697071 1.501828266030458 0  0.2153532608695652 0.625 0  0.2412533945605322 1.457575279565611 0  1.678090669413954 1.267696889804651 0  0.2053571428571428 0.375 0  0.375 0.2050382653061225 0  1.294175302171828 1.12930909293974 0  0.835161298469517 0.9792300199580364 0  2.249446885750175 0.544013092708228 0  1.805072998422435 0.6005105219729567 0  3.420918367346939 1.48469387755102 0  0.5222222222222223 1.771527777777778 0  2.354573390699718 1.043404315840394 0  0.671875 0.515625 0  0.53515625 0.69140625 0  2.214583333333334 1.470138888888889 0  3.231892178836853 1.372190928394479 0  3.639880952380952 0.5461309523809526 0  3.51660541173964 0.7838766379034835 0  3.210840504937081 0.5208629907674649 0  2.950588740601899 0.2165668709345833 0  2.815233623969196 0.5030491785795254 0  1.083528949974407 1.235881015826932 0  2.585211668467502 0.778316879153453 0  3.143120343375446 1.805089893100097 0  0.9896521505025003 1.594981251830706 0  1.87957996989704 1.815676662903797 0  1.626600058535864 0.1681547619047618 0  2.953373015873016 1.514880952380952 0  0.2220850766736066 1.002711978499359 0  0.4224260205797096 1.01898022942029 0  0.5986328125 0.8818359375 0  2.375 0.154265873015873 0  0.8212256493506493 0.1845914502164502 0  3.8125 1.5625 0  3.78125 1.78125 0  1.0625 0.4375 0  0.8671875 0.5807291666666666 0  2.4375 1.8125 0  2.22275641025641 1.78525641025641 0  2.539794950204951 1.494384850614852 0  2.059027777777778 1.197916666666667 0  1.704515975736352 1.011452072790943 0  0.9470212454254227 1.801453052498988 0  1.918017502100738 0.4391265981339625 0  1.375 1.84391955596417 0  2.594123205043675 0.1732636966881334 0  1.611497372532367 0.8407251842095733 0  3.586538895025134 1.821085722175172 0  2.384120800622756 1.384496213629809 0  3.508505519670329 1.049676104119021 0  0.1820540335558793 0.1820974550765656 0  1.450689899973606 0.4924930565216958 0  2.969389279592704 0.610766185970977 0  3.479636682219977 0.3858866822199769 0  3.484790611891776 0.1926780268286212 0  3.125 0.1424398309976598 0  3.858534946236559 0.375 0  3.815049380551659 0.1843794300170415 0  2.8153725923641 0.9788695978190264 0  0.1761290113871636 0.8054315476190477 0  3.824210042675814 0.5563956403663389 0  2.427629910979513 0.5950983296204954 0  0.4637895652744943 1.595039565274494 0  0.1353316326530613 1.625 0  3.869047619047619 0.875 0  1.249564973844784 0.9439888838553999 0  2.125 0.1309601694653478 0  0.6730905143458559 1.271937037763694 0  0.4758841466846654 1.259926649442542 0  1.375 0.1311248731373872 0  0.6473533488434536 1.595737086442022 0  1.662034256815698 0.4924865966265944 0  3.869672512075917 1.125 0  1.832390038253737 0.1681547619047619 0  1.251129743036335 1.588661803950864 0  1.593890444587146 1.587672319401741 0  2.09822870286213 0.4099774202448945 0  0.3672041804298913 1.863236482119776 0  3.175675638845282 0.9756004164486307 0  3.312917483130068 0.7431390521815694 0  1.949346764610204 0.9553275675867292 0  0 1.875 0  0.125 2 0  0.1697704081632653 1.8125 0  1.250217015798098 1.303886758833925 0  1.835950419976561 1.346112776751352 0  0.9599823676558117 1.420119779128127 0  3.593112244897959 1.45280612244898 0  2.056540224487935 0.8167847786318049 0  1.813391518603679 1.658412378406144 0  2.717540968022779 1.325887924832463 0  2.875 2 0  2.790782176324345 1.823358911837828 0  2.96559571976349 0.7816340462561718 0  1.291066125893253 0.2769264367112843 0  2.058790178805516 1.838077939017356 0  3.673332592838314 1.215834814323372 0  0.9071956592137768 0.8220343607442596 0  0.1310120797546304 1.144290287522608 0  1.913874615570387 1.526312479062075 0  3.167986306711986 0.3602294831961773 0  1.587529998678765 1.414932407001446 0  3.649130568669384 0.1571119266068894 0  2.438436537601556 0.8981101131576004 0  2.184935068055161 0.7132002379880827 0  1.456235642937205 1.158801966988924 0  1.386503074512992 1.484584638506796 0  0.3867705968705845 0.6027444819728521 0  2.762778993639535 1.662639496819767 0  0.650390625 1.871527777777778 0  3.64596729502979 0.8886584698474683 0  3.045611599070008 1.158676339734206 0  0.3993538884374467 1.407167403628448 0  0.1516836018189417 1.317691898227368 0  2.374177243744587 0.44524900986925 0  0.9610399745072515 1.13343594717961 0  0.7717402898146146 1.133192846304489 0  2.217406840067589 1.627730408320619 0  3.374466497724555 1.144327478293632 0  3.102333217040289 1.462470750260982 0  0.9845991046279567 0.1639504476860216 0  4 1.875 0  1.536737024305362 1.842483914655334 0  2.494398952860155 1.128595263390141 0  3.375 0 0  1.35480793550772 0.615559550979754 0  1.200028215648868 0.6638952964742415 0  2.868522658058045 1.379123954802417 0  3.32987895819658 0.4227871628526512 0  2.886186525788335 0.3528756827196673 0  2.804013819276893 0.1511494444935829 0  2.680690785851866 0.4362020186265224 0  1.110915716469613 0.8685559166680689 0  2.214722448960161 1.102379401681194 0  2.276771166733366 0.9046523967228255 0  1.706689197955897 0.724037154727565 0  1.903015710979854 0.7163329050691327 0  1.077254105049741 1.873044405931742 0  1.477182186374218 0.7669362764052622 0  1.604355390029422 0.3138347014223712 0  3.357298773015283 1.292121771221682 0  2.642456732564144 1.122937069483146 0  2.827183673783701 0.6501131617032385 0  0.3000359809036467 0.4857081933782919 0  1.39080974675033 0.9003338946919665 0  2.693907172777001 0.8986988520891301 0  2.931442998585418 1.86469249778093 0  1.607564319358728 1.130938877124746 0  3.077810808817073 1.674470823983352 0  1.080472523982749 0.5815519813637883 0  3.088890913835956 0.8588454627236115 0  3.284214600296659 1.854479326042458 0  1.2873402129058 1.728774218841188 0  2.9013999795169 1.242110306871886 0  0.8761001761669315 1.679172777133284 0  1.219550944192924 1.860427700898438 0  0.5165446672830528 0.1507081055534605 0  0.4929450837918542 0.2984926303907968 0  0.6053481855006131 0.388156428045367 0  1.229670648686675 0.1445228097338785 0  2.074781746031746 1.521468253968254 0  2.128472222222222 1.319444444444444 0  0.8190857636454005 1.871527777777778 0  1.19016415713109 0.373667921434455 0  2.522705049795049 1.642089900409902 0  2.5625 1.875 0  1 0.3125 0  3.875 1.4375 0  3.854421179608893 1.271342359217786 0  3.875 2 0  3.252895074367309 1.717720366266284 0  3.339445936751456 1.603038018552652 0  3.482215988057832 1.614109768761893 0  2.408003729780754 1.243076190508459 0  3.355663254605069 0.1386374657746271 0  0.625 0 0  3.739816599856081 0.4464807305048627 0  2.696925297991427 0.6967143210263376 0  0.7382134072506095 0.3413923519609702 0  0.6975123597992916 0.1262897850255805 0  0.517492993476645 0.5524666371243673 0  1.125 0 0  3.225246433696271 0.8481228132984594 0  2.910439866484053 1.104659118790428 0  1.346838689382765 0.4025104968201652 0  2.648094909987562 1.589828726016094 0  1.932279840451773 1.249120455579388 0  3.614646585703633 0.6838796340683926 0  2.505502053701187 0.4828624056142278 0  1.74173389467281 1.148311677154633 0  1.999851510882803 1.078582430205837 0  3.515990234791048 0.9168810411194217 0  2.319573569366616 1.882073569366616 0  3.87890625 1.68359375 0  1.625 2 0  3.375 2 0  3.4375 1.883729560522389 0  0.6980343576336376 1.408315550915699 0  1.749733229779213 1.862103198238473 0  1.543560459462408 1.710839018652099 0  0 0.875 0  0.9914745867414203 0.9222835981771756 0  3.869047619047619 0.6922933184737153 0  0.351025727780003 1.528728843746343 0  1.119959354294166 1.573963676456541 0  1.79099212
[...]
<PointData  Scalars="U"> 
<DataArray  type="Float64"  Name="U"  format="ascii">1.2641978517988228e-01  0.0000000000000000e+00  4.2490027778525526e-19  1.2641978517988228e-01  0.0000000000000000e+00  1.2641978517988231e-01  5.5169889056283234e-19  1.2641978517988228e-01  9.4814838884911712e-02  7.9115928538427260e-03  1.2641978517988228e-01  0.0000000000000000e+00  1.8101291504544582e-02  8.0992067307916575e-03  4.3850474426136536e-02  2.6331697154634549e-02  9.5537249357576112e-02  5.1518540972134196e-03  0.0000000000000000e+00  5.5730564091462716e-02  1.2641978517988228e-01  0.0000000000000000e+00  5.1429319642025432e-03  0.0000000000000000e+00  4.0558373734951034e-03  6.6701280887506889e-02  5.9560941391639442e-02  4.4681010867073613e-03  2.5509881548648649e-02  1.7325531636632696e-02  1.2641978517988228e-01  5.6053402141261012e-02  0.0000000000000000e+00  5.5308656016198499e-02  1.1851854860613963e-01  1.2641978517988231e-01  1.2641978517988231e-01  6.8940261585257595e-02  9.6146789078136643e-03  6.2308621021989422e-03  3.5200550370266828e-02  7.8041195053487819e-03  4.4920069556224490e-02  7.4457277258953958e-02  7.1335338070372276e-02  2.6198415308747159e-02  7.8915139362638574e-03  1.8714532806121332e-02  7.4263874103680641e-02  2.8108515206155373e-03  6.8088353473424318e-02  9.7559858338896965e-02  1.1131519736278249e-01  1.0153009298003326e-02  1.2133337370168459e-01  7.1523084071154356e-03  5.2993665045709794e-03  0.0000000000000000e+00  8.4799386021041701e-02  4.3729824308033918e-02  7.1766035711600552e-03  3.6438006137900106e-03  8.1588420229412748e-02  6.3015874156558127e-02  3.3188166805421852e-02  6.0986542118070354e-19  2.9477125782543675e-03  8.6272432245850308e-03  7.2146853779017769e-03  3.3217694880457289e-03  1.0110301652919892e-01  7.7172060316143395e-03  4.3214991358495998e-02  2.9334574618602186e-02  9.3062207712279257e-02  2.7176554490566038e-02  1.1865943742864756e-02  8.8250055720380471e-02  1.2641978517988228e-01  1.5567344842914744e-02  1.0178405636760136e-02  3.9610967684119980e-02  2.9629637151534903e-02  1.8004254847902097e-02  1.6917839989069153e-02  1.2641978517988228e-01  0.0000000000000000e+00  2.5286292273761491e-02  9.2894564473011546e-02  1.2641978517988228e-01  1.6901924153734010e-02  9.4120428083167826e-02  8.0755785316227683e-03  1.2641978517988228e-01  1.2641978517988228e-01  0.0000000000000000e+00  0.0000000000000000e+00  4.8878720581044523e-19  1.2641978517988228e-01  1.0864200288896132e-01  2.5175017895320562e-03  7.7037056593990766e-02  0.0000000000000000e+00  0.0000000000000000e+00  1.2641978517988231e-01  1.2444447603644659e-01  7.0880154898939106e-03  9.5565816173516796e-02  2.4998371356464915e-02  1.2641978517988228e-01  7.3355183257145292e-03  8.7996879307415649e-02  6.4909403709825064e-02  1.1260676317672401e-01  3.3165454139998378e-02  4.4627442470463387e-02  2.6446912741838066e-02  3.1369043837527824e-02  4.7370474090633295e-02  5.3985508158923617e-03  7.3044607123532784e-03  5.3722023125713114e-02  1.1970648937980703e-01  1.0606070608329961e-02  3.9525454005999917e-02  5.4161509872440505e-02  5.2717184926378585e-02  3.9421800126558312e-02  4.5790304387862708e-03  3.0501442345137984e-03  4.8570701804411236e-03  6.7814544976901783e-03  5.3087288692673061e-03  4.8765995300246022e-02  3.0932048319080390e-03  1.0138054055838935e-01  8.9150515731411403e-02  1.0391422188554274e-01  8.0347520778833170e-03  5.7988620221946313e-02  8.8266542446838209e-02  7.7744817132535393e-02  5.8890761590480060e-02  6.1656962950322755e-03  1.7308081299470774e-02  6.4927120590419052e-02  9.7764413849891402e-02  2.2011050533234867e-02  3.2650521199430141e-02  1.0235458412385857e-01  9.8688189480433217e-02  5.5321795006496456e-02  2.2803470236283693e-02  1.4269008475153474e-02  1.1171442489484064e-01  7.9749130828657821e-03  1.1041888714151031e-01  6.4699694517724275e-03  1.0592981856291078e-02  1.0360503486693308e-01  4.1146022937752734e-02  1.0193069183039506e-02  2.4332320012777346e-02  1.2890530770112202e-02  3.7689905284028109e-03  6.6761934576333179e-03  6.5898773802291330e-03  5.5437400082678145e-03  6.6870548711083473e-03  6.5552545194175246e-03  7.1772049352296658e-03  7.8039078489170272e-02  4.4040653551144972e-03  4.4077014861811890e-03  1.1136489211310720e-01  1.2197979536485121e-01  3.9242419081856666e-03  2.4080426603415406e-02  5.7622969978616424e-03  7.6290507949460476e-02  8.8544558208886862e-02  8.0508497948900554e-03  1.0342129664517652e-01  9.7214553032807707e-03  1.5071844366086648e-02  6.9831505775694355e-03  8.0297407189498377e-02  7.3529247224483077e-02  7.3825997617978437e-03  1.2550014238066962e-01  6.8847222281239635e-03  2.8727875685169652e-03  8.9751780563316289e-03  1.2592595789402336e-01  1.2641978517988231e-01  1.2658412493343249e-01  4.8053358700920382e-02  3.9476462710507081e-02  7.2157461657712363e-02  4.9326216709983571e-02  5.3102274261198189e-03  8.1499302403824109e-02  3.3570027824093296e-02  1.2641978517988228e-01  1.0380129308212642e-01  2.8282169760490737e-03  1.3652600034219706e-02  1.0637941680082824e-01  2.2143036924728202e-02  3.6947555273464862e-02  1.0022059893005346e-01  6.1785536985414530e-02  6.8296290515462562e-03  5.1234246263951802e-02  5.9214876685611080e-03  5.1153012141089953e-03  4.1524665926817948e-03  2.8813288447458847e-02  6.3881033558082792e-02  5.6989395891859002e-02  7.9899025137942767e-02  1.2186689428114404e-01  4.2851572285416651e-03  1.7442003039816478e-02  1.0252393078531651e-01  1.0861132661006752e-01  6.4594189006641056e-03  4.8005390065230191e-02  6.0091376464621385e-02  7.5286120474623242e-02  1.6679896891457605e-02  5.0700200932578973e-02  1.3274581215375000e-02  1.1076059445109741e-01  1.0875735453604758e-01  1.5863481776853015e-02  0.0000000000000000e+00  1.4965310970417240e-02  2.0049227758504679e-02  4.0102214500412764e-02  6.2042176248733281e-03  7.0570768293680601e-03  5.8062584945861445e-03  6.2061047198065196e-03  2.7511671810061575e-02  1.4750343807261080e-02  5.5070374619587519e-03  8.0484279533856104e-03  5.6948375733819976e-03  1.1609962045528106e-01  1.2701531534457119e-02  1.0582018367609572e-02  3.0055903647874971e-02  1.4822472907445049e-02  3.4729139378948609e-03  5.1870241422853194e-02  1.7424706966925597e-02  4.6778347472196651e-03  1.0932179951713687e-01  2.3218116610440417e-02  8.1674509252726041e-02  2.3629373146400109e-02  3.9663775700096498e-03  1.0803982475316115e-01  9.7176779096052768e-02  2.5015139943932702e-02  1.0180181241829564e-01  1.1334253580461900e-01  1.8412611423244591e-02  3.2509497796992769e-02  3.5765787182536556e-02  9.5136358276045122e-03  6.0235771452270083e-02  3.4537132756092513e-02  1.1940959995920275e-01  1.7426278964176412e-02  7.6945155926303757e-02  1.1091330690167096e-01  2.0338086073014582e-02  4.7542591914612263e-02  2.7852376160912167e-02  1.2641978517988231e-01  8.8233582023959159e-02  7.0928530571065754e-02  7.2559226601689036e-02  2.5568062680632320e-02  5.4173689625783249e-03  1.0177772679507275e-18  5.8587214822265962e-03  3.0910660355954645e-03  2.8915317906149377e-02  1.3694221773584182e-02  4.8431126155698986e-02  1.1033977811256647e-18  3.6981350510862177e-03  1.3920394324072320e-02  1.4566060829401551e-02  6.9068104699291089e-02  2.8481569606521789e-02  3.1156919317881977e-03  5.7893362942900593e-03  2.1903594628644798e-02  1.4523774801473426e-02  5.3114637168347693e-03  1.1185315370717799e-01  8.3029464510593301e-02  1.2641978517988228e-01  1.2641978517988228e-01  1.1195024891801665e-01  8.5436346259883514e-02  1.1023733404659909e-01  9.1343985314946252e-02  8.6419775025310147e-02  3.5327881668262222e-02  2.9518617991088920e-03  1.1218732721448936e-01  8.2389330473007241e-02  8.6637037796716103e-03  5.0835391843259536e-03  2.0840784197117632e-18  7.0546296673600576e-03  5.8576749673725044e-03  7.7072620035911199e-03  8.6945270726694161e-03  2.6414213520517656e-02  1.0276452147586001e-02  4.0984727961650745e-03  0.0000000000000000e+00  1.5308645861626367e-02  1.2356285123946308e-18  8.8401035790154417e-02  5.6393487045886009e-02  5.3763281018849543e-02  8.5746066914562259e-03  6.1239045572646450e-02  </DataArray> 
</PointData> 
</Piece>
</UnstructuredGrid>
</VTKFile>