<?xml version="1.0"?>
<VTKFile type="UnstructuredGrid"  version="0.1"  >
<UnstructuredGrid>
<Piece  NumberOfPoints="65" NumberOfCells="64">
<Points>
<DataArray  type="Float64"  NumberOfComponents="3"  format="ascii">0 0 0  0.0625 0 0  0.125 0 0  0.1875 0 0  0.25 0 0  0.3125 0 0  0.375 0 0  0.4375 0 0  0.5 0 0  0.5625 0 0  0.625 0 0  0.6875 0 0  0.75 0 0  0.8125 0 0  0.875 0 0  0.9375 0 0  1 0 0  1.0625 0 0  1.125 0 0  1.1875 0 0  1.25 0 0  1.3125 0 0  1.375 0 0  1.4375 0 0  1.5 0 0  1.5625 0 0  1.625 0 0  1.6875 0 0  1.75 0 0  1.8125 0 0  1.875 0 0  1.9375 0 0  2 0 0  2.0625 0 0  2.125 0 0  2.1875 0 0  2.25 0 0  2.3125 0 0  2.375 0 0  2.4375 0 0  2.5 0 0  2.5625 0 0  2.625 0 0  2.6875 0 0  2.75 0 0  2.8125 0 0  2.875 0 0  2.9375 0 0  3 0 0  3.0625 0 0  3.125 0 0  3.1875 0 0  3.25 0 0  3.3125 0 0  3.375 0 0  3.4375 0 0  3.5 0 0  3.5625 0 0  3.625 0 0  3.6875 0 0  3.75 0 0  3.8125 0 0  3.875 0 0  3.9375 0 0  4 0 0  </DataArray>
</Points>
<Cells>
<DataArray  type="UInt32"  Name="connectivity"  format="ascii">0 1  1 2  2 3  3 4  4 5  5 6  6 7  7 8  8 9  9 10  10 11  11 12  12 13  13 14  14 15  15 16  16 17  17 18  18 19  19 20  20 21  21 22  22 23  23 24  24 25  25 26  26 27  27 28  28 29  29 30  30 31  31 32  32 33  33 34  34 35  35 36  36 37  37 38  38 39  39 40  40 41  41 42  42 43  43 44  44 45  45 46  46 47  47 48  48 49  49 50  50 51  51 52  52 53  53 54  54 55  55 56  56 57  57 58  58 59  59 60  60 61  61 62  62 63  63 64  </DataArray>
<DataArray  type="UInt32"  Name="offsets"  format="ascii">2 4 6 8 10 12 14 16 18 20 22 24 26 28 30 32 34 36 38 40 42 44 46 48 50 52 54 56 58 60 62 64 66 68 70 72 74 76 78 80 82 84 86 88 90 92 94 96 98 100 102 104 106 108 110 112 114 116 118 120 122 124 126 128 </DataArray>
<DataArray  type="UInt8"  Name="types"  format="ascii">3 3 3 3 3 3 3 3 3 3 3 3 3 3 3 3 3 3 3 3 3 3 3 3 3 3 3 3 3 3 3 3 3 3 3 3 3 3 3 3 3 3 3 3 3 3 3 3 3 3 3 3 3 3 3 3 3 3 3 3 3 3 3 3 </DataArray>
</Cells>
<PointData  Scalars="U"> 
<DataArray  type="Float64"  Name="U"  format="ascii">0.0000000000000000e+00  -7.6667439038806323e-02  -1.5434413121949780e-01  -2.3277487202413091e-01  -3.1170642559791661e-01  -3.9088852037532240e-01  -4.7007483485825274e-01  -5.4902397018304649e-01  -6.2750040613038960e-01  -7.0527543725256914e-01  -7.8212808581465942e-01  -8.5784598826904179e-01  -9.3222625200496967e-01  -1.0050762791356553e+00  -1.0762145541037889e+00  -1.1454713919019865e+00  -1.2126896437172969e+00  -1.2777253568189835e+00  -1.3404483855171909e+00  -1.4007429500283812e+00  -1.4585081400936046e+00  -1.5136583602105897e+00  -1.5661237133635431e+00  -1.6158503201694197e+00  -1.6628005704106290e+00  -1.7069533039964759e+00  -1.7483039184942608e+00  -1.7868644005010561e+00  -1.8226632782940755e+00  -1.8557454934062971e+00  -1.8861721890293637e+00  -1.9140204134519578e+00  -1.9393827371023431e+00  -1.9623667821811346e+00  -1.9830946643461402e+00  -2.0017023464455868e+00  -2.0183389048881026e+00  -2.0331657098849765e+00  -2.0463555214983016e+00  -2.0580915041720731e+00  -2.0685661632048542e+00  -2.0779802074335421e+00  -2.0865413432278883e+00  -2.0944630057332958e+00  -2.1019630341323903e+00  -2.1092622985105192e+00  -2.1165832866924439e+00  -2.1241486601525499e+00  -2.1321797887743026e+00  -2.1408952748320078e+00  -2.1505094770754516e+00  -2.1612310462027873e+00  -2.1732614832974373e+00  -2.1867937329707181e+00  -2.2020108229850339e+00  -2.2190845620266697e+00  -2.2381743070484315e+00  -2.2594258112092649e+00  -2.2829701629014538e+00  -2.3089228256798746e+00  -2.3373827880982438e+00  -2.3684318315231701e+00  -2.4021339229493379e+00  -2.4385347386917209e+00  -2.4776613235987175e+00  </DataArray> 
</PointData> 
</Piece>
</UnstructuredGrid>
</VTKFile>