<?xml version="1.0"?>
<VTKFile type="UnstructuredGrid"  version="0.1"  >
<UnstructuredGrid>
<Piece  NumberOfPoints="65" NumberOfCells="64">
<Points>
<DataArray  type="Float64"  NumberOfComponents="3"  format="ascii">0 0 0  0.0625 0 0  0.125 0 0  0.1875 0 0  0.25 0 0  0.3125 0 0  0.375 0 0  0.4375 0 0  0.5 0 0  0.5625 0 0  0.625 0 0  0.6875 0 0  0.75 0 0  0.8125 0 0  0.875 0 0  0.9375 0 0  1 0 0  1.0625 0 0  1.125 0 0  1.1875 0 0  1.25 0 0  1.3125 0 0  1.375 0 0  1.4375 0 0  1.5 0 0  1.5625 0 0  1.625 0 0  1.6875 0 0  1.75 0 0  1.8125 0 0  1.875 0 0  1.9375 0 0  2 0 0  2.0625 0 0  2.125 0 0  2.1875 0 0  2.25 0 0  2.3125 0 0  2.375 0 0  2.4375 0 0  2.5 0 0  2.5625 0 0  2.625 0 0  2.6875 0 0  2.75 0 0  2.8125 0 0  2.875 0 0  2.9375 0 0  3 0 0  3.0625 0 0  3.125 0 0  3.1875 0 0  3.25 0 0  3.3125 0 0  3.375 0 0  3.4375 0 0  3.5 0 0  3.5625 0 0  3.625 0 0  3.6875 0 0  3.75 0 0  3.8125 0 0  3.875 0 0  3.9375 0 0  4 0 0  </DataArray>
</Points>
<Cells>
<DataArray  type="UInt32"  Name="connectivity"  format="ascii">0 1  1 2  2 3  3 4  4 5  5 6  6 7  7 8  8 9  9 10  10 11  11 12  12 13  13 14  14 15  15 16  16 17  17 18  18 19  19 20  20 21  21 22  22 23  23 24  24 25  25 26  26 27  27 28  28 29  29 30  30 31  31 32  32 33  33 34  34 35  35 36  36 37  37 38  38 39  39 40  40 41  41 42  42 43  43 44  44 45  45 46  46 47  47 48  48 49  49 50  50 51  51 52  52 53  53 54  54 55  55 56  56 57  57 58  58 59  59 60  60 61  61 62  62 63  63 64  </DataArray>
<DataArray  type="UInt32"  Name="offsets"  format="ascii">2 4 6 8 10 12 14 16 18 20 22 24 26 28 30 32 34 36 38 40 42 44 46 48 50 52 54 56 58 60 62 64 66 68 70 72 74 76 78 80 82 84 86 88 90 92 94 96 98 100 102 104 106 108 110 112 114 116 118 120 122 124 126 128 </DataArray>
<DataArray  type="UInt8"  Name="types"  format="ascii">3 3 3 3 3 3 3 3 3 3 3 3 3 3 3 3 3 3 3 3 3 3 3 3 3 3 3 3 3 3 3 3 3 3 3 3 3 3 3 3 3 3 3 3 3 3 3 3 3 3 3 3 3 3 3 3 3 3 3 3 3 3 3 3 </DataArray>
</Cells>
<PointData  Scalars="U"> 
<DataArray  type="Float64"  Name="U"  format="ascii">0.0000000000000000e+00  1.7934403337730917e-01  3.5299460354182033e-01  5.2095171077342350e-01  6.8321535532630528e-01  8.3978553743033590e-01  9.9066225729250601e-01  1.1358455150983977e+00  1.2753353110136685e+00  1.4091316451855340e+00  1.5372345177442337e+00  1.6596439288044620e+00  1.7763598784667565e+00  1.8873823668188323e+00  1.9927113939368493e+00  2.0923469598866093e+00  2.1862890647246784e+00  2.2745377084994263e+00  2.3570928912519760e+00  2.4339546130170833e+00  2.5051228738239097e+00  2.5705976736967284e+00  2.6303790126555309e+00  2.6844668907165592e+00  2.7328613078927488e+00  2.7755622641940976e+00  2.8125697596279391e+00  2.8438837941991495e+00  2.8695043679102636e+00  2.8894314807615107e+00  2.9036651327507590e+00  2.9122053238733749e+00  2.9150520541219853e+00  2.9122053234861354e+00  2.9036651319518452e+00  2.8894314795010407e+00  2.8695043661108732e+00  2.8438837917528947e+00  2.8125697563921004e+00  2.7755622599858176e+00  2.7328613024824437e+00  2.6844668838200212e+00  2.6303790039246464e+00  2.5705976627087170e+00  2.5051228600690161e+00  2.4339545958846469e+00  2.3570928700148133e+00  2.2745376822964811e+00  2.1862890325419349e+00  2.0923469205362490e+00  1.9927113460347154e+00  1.8873823087602677e+00  1.7763598084009327e+00  1.6596438446073707e+00  1.5372344169905499e+00  1.4091315251196121e+00  1.2753351685199841e+00  1.1358453466717990e+00  9.9066205900867887e-01  8.3978530491693926e-01  6.8321508373526174e-01  5.2095139475488905e-01  3.5299423722037560e-01  1.7934361033093085e-01  -4.8675762381654067e-07  </DataArray> 
</PointData> 
</Piece>
</UnstructuredGrid>
</VTKFile>