<?xml version="1.0"?>
<VTKFile type="UnstructuredGrid"  version="0.1"  >
<UnstructuredGrid>
<Piece  NumberOfPoints="65" NumberOfCells="64">
<Points>
<DataArray  type="Float64"  NumberOfComponents="3"  format="ascii">0 0 0  0.0625 0 0  0.125 0 0  0.1875 0 0  0.25 0 0  0.3125 0 0  0.375 0 0  0.4375 0 0  0.5 0 0  0.5625 0 0  0.625 0 0  0.6875 0 0  0.75 0 0  0.8125 0 0  0.875 0 0  0.9375 0 0  1 0 0  1.0625 0 0  1.125 0 0  1.1875 0 0  1.25 0 0  1.3125 0 0  1.375 0 0  1.4375 0 0  1.5 0 0  1.5625 0 0  1.625 0 0  1.6875 0 0  1.75 0 0  1.8125 0 0  1.875 0 0  1.9375 0 0  2 0 0  2.0625 0 0  2.125 0 0  2.1875 0 0  2.25 0 0  2.3125 0 0  2.375 0 0  2.4375 0 0  2.5 0 0  2.5625 0 0  2.625 0 0  2.6875 0 0  2.75 0 0  2.8125 0 0  2.875 0 0  2.9375 0 0  3 0 0  3.0625 0 0  3.125 0 0  3.1875 0 0  3.25 0 0  3.3125 0 0  3.375 0 0  3.4375 0 0  3.5 0 0  3.5625 0 0  3.625 0 0  3.6875 0 0  3.75 0 0  3.8125 0 0  3.875 0 0  3.9375 0 0  4 0 0  </DataArray>
</Points>
<Cells>
<DataArray  type="UInt32"  Name="connectivity"  format="ascii">0 1  1 2  2 3  3 4  4 5  5 6  6 7  7 8  8 9  9 10  10 11  11 12  12 13  13 14  14 15  15 16  16 17  17 18  18 19  19 20  20 21  21 22  22 23  23 24  24 25  25 26  26 27  27 28  28 29  29 30  30 31  31 32  32 33  33 34  34 35  35 36  36 37  37 38  38 39  39 40  40 41  41 42  42 43  43 44  44 45  45 46  46 47  47 48  48 49  49 50  50 51  51 52  52 53  53 54  54 55  55 56  56 57  57 58  58 59  59 60  60 61  61 62  62 63  63 64  </DataArray>
<DataArray  type="UInt32"  Name="offsets"  format="ascii">2 4 6 8 10 12 14 16 18 20 22 24 26 28 30 32 34 36 38 40 42 44 46 48 50 52 54 56 58 60 62 64 66 68 70 72 74 76 78 80 82 84 86 88 90 92 94 96 98 100 102 104 106 108 110 112 114 116 118 120 122 124 126 128 </DataArray>
<DataArray  type="UInt8"  Name="types"  format="ascii">3 3 3 3 3 3 3 3 3 3 3 3 3 3 3 3 3 3 3 3 3 3 3 3 3 3 3 3 3 3 3 3 3 3 3 3 3 3 3 3 3 3 3 3 3 3 3 3 3 3 3 3 3 3 3 3 3 3 3 3 3 3 3 3 </DataArray>
</Cells>
<PointData  Scalars="U"> 
<DataArray  type="Float64"  Name="U"  format="ascii">0.0000000000000000e+00  2.0804275509227699e-01  4.0948097719871018e-01  6.0431466653044219e-01  7.9254382327067918e-01  9.7416844757717913e-01  1.1491885395847312e+00  1.3176040994075846e+00  1.4794151271417944e+00  1.6346216228674499e+00  1.7832235866507682e+00  1.9252210185460263e+00  2.0606139185973267e+00  2.1894022868401861e+00  2.3115861233029515e+00  2.4271654280080379e+00  2.5361402009730103e+00  2.6385104422114973e+00  2.7342761517339773e+00  2.8234373295484283e+00  2.9059939756608646e+00  2.9819460900757737e+00  3.0512936727964721e+00  3.1140367238253819e+00  3.1701752431642545e+00  3.2197092308143347e+00  3.2626386867764947e+00  3.2989636110513256e+00  3.3286840036392022e+00  3.3517998645403306e+00  3.3683111937547658e+00  3.3782179912824142e+00  3.3815202571230123e+00  3.3782179912760841e+00  3.3683111937408667e+00  3.3517998645161931e+00  3.3286840036003369e+00  3.2989636109907829e+00  3.2626386866839248e+00  3.2197092306746531e+00  3.1701752429558172e+00  3.1140367235175179e+00  3.0512936723462123e+00  2.9819460894235732e+00  2.9059939747250749e+00  2.8234373282182461e+00  2.7342761498605763e+00  2.6385104395969941e+00  2.5361401973569295e+00  2.4271654230509037e+00  2.3115861165666542e+00  2.1894022777648048e+00  2.0606139064741038e+00  1.9252210024862906e+00  1.7832235655506710e+00  1.6346215953685066e+00  1.4794150915873554e+00  1.3176040537955223e+00  1.1491884815167939e+00  9.7416837420565072e-01  7.9254373124315669e-01  6.0431455193371830e-01  4.0948083550289871e-01  2.0804258109644988e-01  -2.1221930271152767e-07  </DataArray> 
</PointData> 
</Piece>
</UnstructuredGrid>
</VTKFile>