<?xml version="1.0"?>
<VTKFile type="UnstructuredGrid"  version="0.1"  >
<UnstructuredGrid>
<Piece  NumberOfPoints="65" NumberOfCells="64">
<Points>
<DataArray  type="Float64"  NumberOfComponents="3"  format="ascii">0 0 0  0.0625 0 0  0.125 0 0  0.1875 0 0  0.25 0 0  0.3125 0 0  0.375 0 0  0.4375 0 0  0.5 0 0  0.5625 0 0  0.625 0 0  0.6875 0 0  0.75 0 0  0.8125 0 0  0.875 0 0  0.9375 0 0  1 0 0  1.0625 0 0  1.125 0 0  1.1875 0 0  1.25 0 0  1.3125 0 0  1.375 0 0  1.4375 0 0  1.5 0 0  1.5625 0 0  1.625 0 0  1.6875 0 0  1.75 0 0  1.8125 0 0  1.875 0 0  1.9375 0 0  2 0 0  2.0625 0 0  2.125 0 0  2.1875 0 0  2.25 0 0  2.3125 0 0  2.375 0 0  2.4375 0 0  2.5 0 0  2.5625 0 0  2.625 0 0  2.6875 0 0  2.75 0 0  2.8125 0 0  2.875 0 0  2.9375 0 0  3 0 0  3.0625 0 0  3.125 0 0  3.1875 0 0  3.25 0 0  3.3125 0 0  3.375 0 0  3.4375 0 0  3.5 0 0  3.5625 0 0  3.625 0 0  3.6875 0 0  3.75 0 0  3.8125 0 0  3.875 0 0  3.9375 0 0  4 0 0  </DataArray>
</Points>
<Cells>
<DataArray  type="UInt32"  Name="connectivity"  format="ascii">0 1  1 2  2 3  3 4  4 5  5 6  6 7  7 8  8 9  9 10  10 11  11 12  12 13  13 14  14 15  15 16  16 17  17 18  18 19  19 20  20 21  21 22  22 23  23 24  24 25  25 26  26 27  27 28  28 29  29 30  30 31  31 32  32 33  33 34  34 35  35 36  36 37  37 38  38 39  39 40  40 41  41 42  42 43  43 44  44 45  45 46  46 47  47 48  48 49  49 50  50 51  51 52  52 53  53 54  54 55  55 56  56 57  57 58  58 59  59 60  60 61  61 62  62 63  63 64  </DataArray>
<DataArray  type="UInt32"  Name="offsets"  format="ascii">2 4 6 8 10 12 14 16 18 20 22 24 26 28 30 32 34 36 38 40 42 44 46 48 50 52 54 56 58 60 62 64 66 68 70 72 74 76 78 80 82 84 86 88 90 92 94 96 98 100 102 104 106 108 110 112 114 116 118 120 122 124 126 128 </DataArray>
<DataArray  type="UInt8"  Name="types"  format="ascii">3 3 3 3 3 3 3 3 3 3 3 3 3 3 3 3 3 3 3 3 3 3 3 3 3 3 3 3 3 3 3 3 3 3 3 3 3 3 3 3 3 3 3 3 3 3 3 3 3 3 3 3 3 3 3 3 3 3 3 3 3 3 3 3 </DataArray>
</Cells>
<PointData  Scalars="U"> 
<DataArray  type="Float64"  Name="U"  format="ascii">0.0000000000000000e+00  -1.3196884002271184e-03  -8.2715947252208679e-03  -1.9931397442217499e-02  -3.5417764069547962e-02  -5.3910062364222529e-02  -7.4661947385392669e-02  -9.7010242664524016e-02  -1.2037903404291207e-01  -1.4427934460524594e-01  -1.6830510194424608e-01  -1.9212631448586712e-01  -2.1548043908592618e-01  -2.3816286754993909e-01  -2.6001731923526339e-01  -2.8092673931636558e-01  -3.0080510329746618e-01  -3.1959034530927732e-01  -3.3723847764934911e-01  -3.5371885908968664e-01  -3.6901049910313799e-01  -3.8309924876343132e-01  -3.9597571867120412e-01  -4.0763377152300256e-01  -4.1806945452143379e-01  -4.2728025899555167e-01  -4.3526461739438277e-01  -4.4202156884465782e-01  -4.4755054258573518e-01  -4.5185122356321228e-01  -4.5492347661954968e-01  -4.5676731577590340e-01  -4.5738291400571923e-01  -4.5677065780393378e-01  -4.5493126111702425e-01  -4.5186596645725707e-01  -4.4757687927247147e-01  -4.4206750728082400e-01  -4.3534361228678792e-01  -4.2741453093854387e-01  -4.1829518567100882e-01  -4.0800908929844626e-01  -3.9659274551341750e-01  -3.8410195767429584e-01  -3.7062066768149582e-01  -3.5627303399863569e-01  -3.4123948995642223e-01  -3.2577745523591656e-01  -3.1024715007077980e-01  -2.9514252602765256e-01  -2.8112663289469397e-01  -2.6906977230147611e-01  -2.6008758337764992e-01  -2.5557487911398741e-01  -2.5722980974979920e-01  -2.6706206178259606e-01  -2.8737864820424042e-01  -3.2074172933906675e-01  -3.6989503337143920e-01  -4.3765881569158704e-01  -5.2679760873712767e-01  -6.3986966229793696e-01  -7.7907111392088402e-01  -9.4609064133443310e-01  -1.1419908660801166e+00  </DataArray> 
</PointData> 
</Piece>
</UnstructuredGrid>
</VTKFile>