<?xml version="1.0"?>
<VTKFile type="UnstructuredGrid"  version="0.1"  >
<UnstructuredGrid>
<Piece  NumberOfPoints="65" NumberOfCells="64">
<Points>
<DataArray  type="Float64"  NumberOfComponents="3"  format="ascii">0 0 0  0.0625 0 0  0.125 0 0  0.1875 0 0  0.25 0 0  0.3125 0 0  0.375 0 0  0.4375 0 0  0.5 0 0  0.5625 0 0  0.625 0 0  0.6875 0 0  0.75 0 0  0.8125 0 0  0.875 0 0  0.9375 0 0  1 0 0  1.0625 0 0  1.125 0 0  1.1875 0 0  1.25 0 0  1.3125 0 0  1.375 0 0  1.4375 0 0  1.5 0 0  1.5625 0 0  1.625 0 0  1.6875 0 0  1.75 0 0  1.8125 0 0  1.875 0 0  1.9375 0 0  2 0 0  2.0625 0 0  2.125 0 0  2.1875 0 0  2.25 0 0  2.3125 0 0  2.375 0 0  2.4375 0 0  2.5 0 0  2.5625 0 0  2.625 0 0  2.6875 0 0  2.75 0 0  2.8125 0 0  2.875 0 0  2.9375 0 0  3 0 0  3.0625 0 0  3.125 0 0  3.1875 0 0  3.25 0 0  3.3125 0 0  3.375 0 0  3.4375 0 0  3.5 0 0  3.5625 0 0  3.625 0 0  3.6875 0 0  3.75 0 0  3.8125 0 0  3.875 0 0  3.9375 0 0  4 0 0  </DataArray>
</Points>
<Cells>
<DataArray  type="UInt32"  Name="connectivity"  format="ascii">0 1  1 2  2 3  3 4  4 5  5 6  6 7  7 8  8 9  9 10  10 11  11 12  12 13  13 14  14 15  15 16  16 17  17 18  18 19  19 20  20 21  21 22  22 23  23 24  24 25  25 26  26 27  27 28  28 29  29 30  30 31  31 32  32 33  33 34  34 35  35 36  36 37  37 38  38 39  39 40  40 41  41 42  42 43  43 44  44 45  45 46  46 47  47 48  48 49  49 50  50 51  51 52  52 53  53 54  54 55  55 56  56 57  57 58  58 59  59 60  60 61  61 62  62 63  63 64  </DataArray>
<DataArray  type="UInt32"  Name="offsets"  format="ascii">2 4 6 8 10 12 14 16 18 20 22 24 26 28 30 32 34 36 38 40 42 44 46 48 50 52 54 56 58 60 62 64 66 68 70 72 74 76 78 80 82 84 86 88 90 92 94 96 98 100 102 104 106 108 110 112 114 116 118 120 122 124 126 128 </DataArray>
<DataArray  type="UInt8"  Name="types"  format="ascii">3 3 3 3 3 3 3 3 3 3 3 3 3 3 3 3 3 3 3 3 3 3 3 3 3 3 3 3 3 3 3 3 3 3 3 3 3 3 3 3 3 3 3 3 3 3 3 3 3 3 3 3 3 3 3 3 3 3 3 3 3 3 3 3 </DataArray>
</Cells>
<PointData  Scalars="U"> 
<DataArray  type="Float64"  Name="U"  format="ascii">0.0000000000000000e+00  -8.7561072438335878e-03  -1.7879622416181306e-02  -2.7325242986583242e-02  -3.7045043378813119e-02  -4.6989020015306540e-02  -5.7105681573803614e-02  -6.7342600655145871e-02  -7.7646970186183079e-02  -8.7966145179606270e-02  -9.8248145052993341e-02  -1.0844211986085062e-01  -1.1849877105040256e-01  -1.2837072868602770e-01  -1.3801287735674009e-01  -1.4738263085218406e-01  -1.5644016566813240e-01  -1.6514860808307991e-01  -1.7347418129942577e-01  -1.8138632245645009e-01  -1.8885776995815715e-01  -1.9586463025006420e-01  -2.0238643046990051e-01  -2.0840616163462997e-01  -2.1391032094344065e-01  -2.1888895589470800e-01  -2.2333571599897817e-01  -2.2724791804758349e-01  -2.3062662409529541e-01  -2.3347673637828900e-01  -2.3580711117364697e-01  -2.3763068710936128e-01  -2.3896462861260473e-01  -2.3983048149536257e-01  -2.4025433242599842e-01  -2.4026696771987804e-01  -2.3990402279571135e-01  -2.3920611065434746e-01  -2.3821891819851984e-01  -2.3699325634426119e-01  -2.3558505094143886e-01  -2.3405525596735216e-01  -2.3246967181682862e-01  -2.3089865958991215e-01  -2.2941672607182653e-01  -2.2810196505701358e-01  -2.2703535690366672e-01  -2.2629989966988329e-01  -2.2597957130214363e-01  -2.2615813449200914e-01  -2.2691777768855298e-01  -2.2833761888357273e-01  -2.3049206675084569e-01  -2.3344910222721138e-01  -2.3726853316913549e-01  -2.4200017492531023e-01  -2.4768211619371436e-01  -2.5433911023476807e-01  -2.6198109950331888e-01  -2.7060198554396286e-01  -2.8017865711427309e-01  -2.9067044214880555e-01  -3.0201891757489624e-01  -3.1414813348829501e-01  -3.2696534966352070e-01  </DataArray> 
</PointData> 
</Piece>
</UnstructuredGrid>
</VTKFile>