<?xml version="1.0"?>
<VTKFile type="UnstructuredGrid"  version="0.1"  >
<UnstructuredGrid>
<Piece  NumberOfPoints="65" NumberOfCells="64">
<Points>
<DataArray  type="Float64"  NumberOfComponents="3"  format="ascii">0 0 0  0.0625 0 0  0.125 0 0  0.1875 0 0  0.25 0 0  0.3125 0 0  0.375 0 0  0.4375 0 0  0.5 0 0  0.5625 0 0  0.625 0 0  0.6875 0 0  0.75 0 0  0.8125 0 0  0.875 0 0  0.9375 0 0  1 0 0  1.0625 0 0  1.125 0 0  1.1875 0 0  1.25 0 0  1.3125 0 0  1.375 0 0  1.4375 0 0  1.5 0 0  1.5625 0 0  1.625 0 0  1.6875 0 0  1.75 0 0  1.8125 0 0  1.875 0 0  1.9375 0 0  2 0 0  2.0625 0 0  2.125 0 0  2.1875 0 0  2.25 0 0  2.3125 0 0  2.375 0 0  2.4375 0 0  2.5 0 0  2.5625 0 0  2.625 0 0  2.6875 0 0  2.75 0 0  2.8125 0 0  2.875 0 0  2.9375 0 0  3 0 0  3.0625 0 0  3.125 0 0  3.1875 0 0  3.25 0 0  3.3125 0 0  3.375 0 0  3.4375 0 0  3.5 0 0  3.5625 0 0  3.625 0 0  3.6875 0 0  3.75 0 0  3.8125 0 0  3.875 0 0  3.9375 0 0  4 0 0  </DataArray>
</Points>
<Cells>
<DataArray  type="UInt32"  Name="connectivity"  format="ascii">0 1  1 2  2 3  3 4  4 5  5 6  6 7  7 8  8 9  9 10  10 11  11 12  12 13  13 14  14 15  15 16  16 17  17 18  18 19  19 20  20 21  21 22  22 23  23 24  24 25  25 26  26 27  27 28  28 29  29 30  30 31  31 32  32 33  33 34  34 35  35 36  36 37  37 38  38 39  39 40  40 41  41 42  42 43  43 44  44 45  45 46  46 47  47 48  48 49  49 50  50 51  51 52  52 53  53 54  54 55  55 56  56 57  57 58  58 59  59 60  60 61  61 62  62 63  63 64  </DataArray>
<DataArray  type="UInt32"  Name="offsets"  format="ascii">2 4 6 8 10 12 14 16 18 20 22 24 26 28 30 32 34 36 38 40 42 44 46 48 50 52 54 56 58 60 62 64 66 68 70 72 74 76 78 80 82 84 86 88 90 92 94 96 98 100 102 104 106 108 110 112 114 116 118 120 122 124 126 128 </DataArray>
<DataArray  type="UInt8"  Name="types"  format="ascii">3 3 3 3 3 3 3 3 3 3 3 3 3 3 3 3 3 3 3 3 3 3 3 3 3 3 3 3 3 3 3 3 3 3 3 3 3 3 3 3 3 3 3 3 3 3 3 3 3 3 3 3 3 3 3 3 3 3 3 3 3 3 3 3 </DataArray>
</Cells>
<PointData  Scalars="U"> 
<DataArray  type="Float64"  Name="U"  format="ascii">0.0000000000000000e+00  1.0835349914939982e-01  2.1326720146615341e-01  3.1474110729958943e-01  4.1277521698196390e-01  5.0736953082854208e-01  5.9852404913773083e-01  6.8623877219125451e-01  7.7051370025437160e-01  8.5134883357612012e-01  9.2874417238959406e-01  1.0026997169122367e+00  1.0732154673461518e+00  1.1402914238784190e+00  1.2039275866814185e+00  1.2641239559131481e+00  1.3208805317175345e+00  1.3741973142247348e+00  1.4240743035514123e+00  1.4705114998010012e+00  1.5135089030639339e+00  1.5530665134178474e+00  1.5891843309277516e+00  1.6218623556461613e+00  1.6511005876131921e+00  1.6768990268566124e+00  1.6992576733918554e+00  1.7181765272219878e+00  1.7336555883376332e+00  1.7456948567168553e+00  1.7542943323249960e+00  1.7594540151144729e+00  1.7611739050245405e+00  1.7594540019810121e+00  1.7542943058959490e+00  1.7456948166673241e+00  1.7336555341786541e+00  1.7181764582986232e+00  1.6992575888806816e+00  1.6768989257626450e+00  1.6511004687662907e+00  1.6218622176969597e+00  1.5891841723431763e+00  1.5530663324762886e+00  1.5135086978501400e+00  1.4705112682007837e+00  1.4240740432462424e+00  1.3741970226863298e+00  1.3208802062025349e+00  1.2641235934579882e+00  1.2039271840975054e+00  1.1402909777477328e+00  1.0732149740173873e+00  1.0026991724976093e+00  9.2874357276243080e-01  8.5134817436936594e-01  7.7051297686012987e-01  6.8623797976149081e-01  5.9852318258625825e-01  5.0736858483441116e-01  4.1277418599436561e-01  3.1473998554438493e-01  2.1326598295412871e-01  1.0835217768634083e-01  -1.4308013294485084e-06  </DataArray> 
</PointData> 
</Piece>
</UnstructuredGrid>
</VTKFile>