<?xml version="1.0"?>
<VTKFile type="UnstructuredGrid"  version="0.1"  >
<UnstructuredGrid>
<Piece  NumberOfPoints="335" NumberOfCells="604">
<Points>
<DataArray  type="Float64"  NumberOfComponents="3"  format="ascii">0 2 0  0 0 0  4 0 0  4 2 0  2 0 0  2 2 0  1 0 0  1 2 0  0 1 0  4 1 0  3 2 0  3 0 0  1.5 1 0  3 1 0  0.75 0.75 0  2.25 1.25 0  0.5625 1.4375 0  4 0.5 0  3.5 0 0  4 1.5 0  3.5 2 0  2.5 0 0  2.035714285714286 0.6428571428571428 0  1.5 0 0  3.416666666666667 0.5833333333333334 0  1.135869565217391 1.442934782608696 0  1.75 1.5 0  2.611201298701299 0.5693993506493507 0  3.5 1.25 0  1.25 0.5 0  2.5 2 0  2.75 1.5 0  0.5 0 0  0 0.5 0  0 1.5 0  0.5 2 0  1.5 2 0  3.196428571428572 1.589285714285714 0  1.75 0.3363095238095237 0  3.016488529250673 0.4286986695828525 0  1.075849239304906 1.022452282085282 0  2.25 0.308531746031746 0  0.4375 0.4375 0  2.375 1.625 0  0.359375 0.828125 0  0.875 0.375 0  2.579589900409902 0.9887697012297049 0  1.875 1.125 0  3.625 1.625 0  3.738095238095238 0.75 0  0.61328125 1.08203125 0  0.283203125 1.216238839285714 0  0.75 1.743055555555556 0  1.575774875167458 0.6496125624162709 0  0.30625 1.69375 0  3.677083333333333 0.3229166666666667 0  3.347222222222222 0.9305555555555556 0  2.75 0 0  1.426285733982903 1.650642866991451 0  1.441247178754399 1.322840772184865 0  3.307719501506081 0.2701504049770592 0  2.343107299193003 0.7600674782727458 0  2.041666666666667 1.666666666666667 0  0.8721051282065269 1.266059980878688 0  3.017857142857143 1.321428571428571 0  0.25 0 0  3.124094139334942 0.7176929188969303 0  2.133642051592332 0.9740738452230051 0  2.744869578259833 0.3003660856503637 0  2.795144003253926 0.7941412087465988 0  1.143043947544775 1.739786699825343 0  1.808516825619384 0.8349817990159853 0  2.006944444444445 1.388888888888889 0  2.545410099590098 1.284179800819803 0  2.625 1.75 0  1.049150760695094 0.7233015213901878 0  1.458640484663616 0.2918202423318081 0  2.938492063492064 1.718253968253968 0  1.75 2 0  1.125 0.25 0  3.708891369047619 1.042782738095238 0  3.75 1.375 0  0 0.25 0  2.785310692237909 1.162254590955012 0  1.323940624311342 0.7684841149566988 0  2.25 2 0  0.75 0 0  0.6335227272727273 0.2471590909090909 0  4 1.75 0  3.75 2 0  3.210459183673469 1.149518140589569 0  3.398166023166023 1.757722007722008 0  1.996445105820106 0.2584325396825397 0  2.75 2 0  1.25 2 0  3.25 0 0  3.75 0 0  1.25 0 0  0.75 2 0  0 1.25 0  4 0.75 0  0 0.75 0  2.25 0 0  1.75 0 0  0.25 2 0  0 1.75 0  4 0.25 0  1.669430850940762 1.75 0  4 1.25 0  3.25 2 0  2.498111965552158 0.3454883412923062 0  0.8003899450697071 1.501828266030458 0  0.2153532608695652 0.625 0  0.2412533945605322 1.457575279565611 0  1.678090669413954 1.267696889804651 0  0.2053571428571428 0.375 0  0.375 0.2050382653061225 0  1.294175302171828 1.12930909293974 0  0.835161298469517 0.9792300199580364 0  2.249446885750175 0.544013092708228 0  1.805072998422435 0.6005105219729567 0  3.420918367346939 1.48469387755102 0  0.5222222222222223 1.771527777777778 0  2.354573390699718 1.043404315840394 0  0.671875 0.515625 0  0.53515625 0.69140625 0  2.214583333333334 1.470138888888889 0  3.231892178836853 1.372190928394479 0  3.639880952380952 0.5461309523809526 0  3.51660541173964 0.7838766379034835 0  3.210840504937081 0.5208629907674649 0  2.950588740601899 0.2165668709345833 0  2.815233623969196 0.5030491785795254 0  1.083528949974407 1.235881015826932 0  2.585211668467502 0.778316879153453 0  3.143120343375446 1.805089893100097 0  0.9896521505025003 1.594981251830706 0  1.87957996989704 1.815676662903797 0  1.626600058535864 0.1681547619047618 0  2.953373015873016 1.514880952380952 0  0.2220850766736066 1.002711978499359 0  0.4224260205797096 1.01898022942029 0  0.5986328125 0.8818359375 0  2.375 0.154265873015873 0  0.8212256493506493 0.1845914502164502 0  3.8125 1.5625 0  3.78125 1.78125 0  1.0625 0.4375 0  0.8671875 0.5807291666666666 0  2.4375 1.8125 0  2.22275641025641 1.78525641025641 0  2.539794950204951 1.494384850614852 0  2.059027777777778 1.197916666666667 0  1.704515975736352 1.011452072790943 0  0.9470212454254227 1.801453052498988 0  1.918017502100738 0.4391265981339625 0  1.375 1.84391955596417 0  2.594123205043675 0.1732636966881334 0  1.611497372532367 0.8407251842095733 0  3.586538895025134 1.821085722175172 0  2.384120800622756 1.384496213629809 0  3.508505519670329 1.049676104119021 0  0.1820540335558793 0.1820974550765656 0  1.450689899973606 0.4924930565216958 0  2.969389279592704 0.610766185970977 0  3.479636682219977 0.3858866822199769 0  3.484790611891776 0.1926780268286212 0  3.125 0.1424398309976598 0  3.858534946236559 0.375 0  3.815049380551659 0.1843794300170415 0  2.8153725923641 0.9788695978190264 0  0.1761290113871636 0.8054315476190477 0  3.824210042675814 0.5563956403663389 0  2.427629910979513 0.5950983296204954 0  0.4637895652744943 1.595039565274494 0  0.1353316326530613 1.625 0  3.869047619047619 0.875 0  1.249564973844784 0.9439888838553999 0  2.125 0.1309601694653478 0  0.6730905143458559 1.271937037763694 0  0.4758841466846654 1.259926649442542 0  1.375 0.1311248731373872 0  0.6473533488434536 1.595737086442022 0  1.662034256815698 0.4924865966265944 0  3.869672512075917 1.125 0  1.832390038253737 0.1681547619047619 0  1.251129743036335 1.588661803950864 0  1.593890444587146 1.587672319401741 0  2.09822870286213 0.4099774202448945 0  0.3672041804298913 1.863236482119776 0  3.175675638845282 0.9756004164486307 0  3.312917483130068 0.7431390521815694 0  1.949346764610204 0.9553275675867292 0  0 1.875 0  0.125 2 0  0.1697704081632653 1.8125 0  1.250217015798098 1.303886758833925 0  1.835950419976561 1.346112776751352 0  0.9599823676558117 1.420119779128127 0  3.593112244897959 1.45280612244898 0  2.056540224487935 0.8167847786318049 0  1.813391518603679 1.658412378406144 0  2.717540968022779 1.325887924832463 0  2.875 2 0  2.790782176324345 1.823358911837828 0  2.96559571976349 0.7816340462561718 0  1.291066125893253 0.2769264367112843 0  2.058790178805516 1.838077939017356 0  3.673332592838314 1.215834814323372 0  0.9071956592137768 0.8220343607442596 0  0.1310120797546304 1.144290287522608 0  1.913874615570387 1.526312479062075 0  3.167986306711986 0.3602294831961773 0  1.587529998678765 1.414932407001446 0  3.649130568669384 0.1571119266068894 0  2.438436537601556 0.8981101131576004 0  2.184935068055161 0.7132002379880827 0  1.456235642937205 1.158801966988924 0  1.386503074512992 1.484584638506796 0  0.3867705968705845 0.6027444819728521 0  2.762778993639535 1.662639496819767 0  0.650390625 1.871527777777778 0  3.64596729502979 0.8886584698474683 0  3.045611599070008 1.158676339734206 0  0.3993538884374467 1.407167403628448 0  0.1516836018189417 1.317691898227368 0  2.374177243744587 0.44524900986925 0  0.9610399745072515 1.13343594717961 0  0.7717402898146146 1.133192846304489 0  2.217406840067589 1.627730408320619 0  3.374466497724555 1.144327478293632 0  3.102333217040289 1.462470750260982 0  0.9845991046279567 0.1639504476860216 0  4 1.875 0  1.536737024305362 1.842483914655334 0  2.494398952860155 1.128595263390141 0  3.375 0 0  1.35480793550772 0.615559550979754 0  1.200028215648868 0.6638952964742415 0  2.868522658058045 1.379123954802417 0  3.32987895819658 0.4227871628526512 0  2.886186525788335 0.3528756827196673 0  2.804013819276893 0.1511494444935829 0  2.680690785851866 0.4362020186265224 0  1.110915716469613 0.8685559166680689 0  2.214722448960161 1.102379401681194 0  2.276771166733366 0.9046523967228255 0  1.706689197955897 0.724037154727565 0  1.903015710979854 0.7163329050691327 0  1.077254105049741 1.873044405931742 0  1.477182186374218 0.7669362764052622 0  1.604355390029422 0.3138347014223712 0  3.357298773015283 1.292121771221682 0  2.642456732564144 1.122937069483146 0  2.827183673783701 0.6501131617032385 0  0.3000359809036467 0.4857081933782919 0  1.39080974675033 0.9003338946919665 0  2.693907172777001 0.8986988520891301 0  2.931442998585418 1.86469249778093 0  1.607564319358728 1.130938877124746 0  3.077810808817073 1.674470823983352 0  1.080472523982749 0.5815519813637883 0  3.088890913835956 0.8588454627236115 0  3.284214600296659 1.854479326042458 0  1.2873402129058 1.728774218841188 0  2.9013999795169 1.242110306871886 0  0.8761001761669315 1.679172777133284 0  1.219550944192924 1.860427700898438 0  0.5165446672830528 0.1507081055534605 0  0.4929450837918542 0.2984926303907968 0  0.6053481855006131 0.388156428045367 0  1.229670648686675 0.1445228097338785 0  2.074781746031746 1.521468253968254 0  2.128472222222222 1.319444444444444 0  0.8190857636454005 1.871527777777778 0  1.19016415713109 0.373667921434455 0  2.522705049795049 1.642089900409902 0  2.5625 1.875 0  1 0.3125 0  3.875 1.4375 0  3.854421179608893 1.271342359217786 0  3.875 2 0  3.252895074367309 1.717720366266284 0  3.339445936751456 1.603038018552652 0  3.482215988057832 1.614109768761893 0  2.408003729780754 1.243076190508459 0  3.355663254605069 0.1386374657746271 0  0.625 0 0  3.739816599856081 0.4464807305048627 0  2.696925297991427 0.6967143210263376 0  0.7382134072506095 0.3413923519609702 0  0.6975123597992916 0.1262897850255805 0  0.517492993476645 0.5524666371243673 0  1.125 0 0  3.225246433696271 0.8481228132984594 0  2.910439866484053 1.104659118790428 0  1.346838689382765 0.4025104968201652 0  2.648094909987562 1.589828726016094 0  1.932279840451773 1.249120455579388 0  3.614646585703633 0.6838796340683926 0  2.505502053701187 0.4828624056142278 0  1.74173389467281 1.148311677154633 0  1.999851510882803 1.078582430205837 0  3.515990234791048 0.9168810411194217 0  2.319573569366616 1.882073569366616 0  3.87890625 1.68359375 0  1.625 2 0  3.375 2 0  3.4375 1.883729560522389 0  0.6980343576336376 1.408315550915699 0  1.749733229779213 1.862103198238473 0  1.543560459462408 1.710839018652099 0  0 0.875 0  0.9914745867414203 0.9222835981771756 0  3.869047619047619 0.6922933184737153 0  0.351025727780003 1.528728843746343 0  1.119959354294166 1.573963676456541 0  1.79099212
[...]
<PointData  Scalars="U"> 
<DataArray  type="Float64"  Name="U"  format="ascii">7.2031821008554764e-02  0.0000000000000000e+00  2.4210087615924247e-19  7.2031821008554764e-02  0.0000000000000000e+00  7.2031821008554778e-02  3.1434854662262282e-19  7.2031821008554764e-02  5.4023865756416087e-02  1.4376548837647890e-02  7.2031821008554764e-02  0.0000000000000000e+00  2.5785630315721033e-02  1.4664032498655255e-02  3.8626405235417265e-02  2.7017206363058079e-02  6.5913802878011407e-02  8.1316138632994747e-03  0.0000000000000000e+00  4.0775420798610747e-02  7.2031821008554764e-02  0.0000000000000000e+00  1.1734703859403776e-02  0.0000000000000000e+00  8.4244669588092059e-03  5.2935182273992624e-02  4.5842890755338914e-02  8.9782800758673020e-03  2.5066999026877652e-02  2.0035620711309033e-02  7.2031821008554764e-02  4.1193563298053730e-02  0.0000000000000000e+00  3.1513921691242716e-02  6.7529832195520098e-02  7.2031821008554764e-02  7.2031821008554778e-02  4.7173748920592125e-02  1.0956842798898565e-02  8.0794537314457168e-03  3.7312703936522022e-02  8.3144176265769650e-03  3.1716999263615771e-02  5.0515265796559523e-02  4.9331279245849562e-02  2.2873121815503959e-02  1.4980689758782448e-02  2.4331971816282858e-02  4.9637992543461990e-02  9.4273326396492104e-03  5.3094030077274638e-02  6.3169831225011144e-02  7.0659454321735482e-02  1.6974452088084083e-02  7.3517792372963131e-02  7.3718315800700733e-03  1.2480133307161344e-02  0.0000000000000000e+00  5.8380657974037638e-02  4.0417797021741635e-02  6.8527266948686929e-03  1.1168182815252082e-02  5.4439001476111235e-02  5.2349697633296298e-02  2.9367569104390999e-02  3.4749083614790097e-19  9.2825886284812354e-03  1.6639785983264523e-02  7.3620412065587013e-03  1.0480880449262812e-02  6.5752613576484528e-02  1.6577168998938911e-02  3.6694388318453688e-02  2.7844799756021041e-02  5.8474371649475124e-02  2.9760334248366691e-02  1.2354650711287085e-02  5.6196150434939113e-02  7.2031821008554778e-02  1.4266052980761310e-02  1.5880689043291839e-02  3.2548641435131385e-02  1.6882458048880025e-02  2.1121350320642527e-02  2.3830171598426618e-02  7.2031821008554764e-02  0.0000000000000000e+00  1.9033216168393128e-02  5.8122224924825341e-02  7.2031821008554764e-02  2.0184270298620605e-02  5.8687726900836110e-02  8.2711136063824617e-03  7.2031821008554764e-02  7.2031821008554764e-02  0.0000000000000000e+00  0.0000000000000000e+00  2.7850254981933366e-19  7.2031821008554764e-02  6.1902346179226762e-02  9.2842521564141540e-03  4.3894390927088058e-02  0.0000000000000000e+00  0.0000000000000000e+00  7.2031821008554778e-02  7.0906323805296087e-02  6.5703636121236886e-03  6.1404698335985039e-02  2.4822569818361982e-02  7.2031821008554778e-02  8.1501550386729703e-03  6.3093693374854307e-02  4.1407327101732005e-02  6.9618418051611369e-02  3.3501697846456784e-02  2.8216897377809653e-02  1.7741863118613525e-02  3.4941266905310804e-02  4.3305914903177520e-02  9.9256295616819614e-03  1.3419530763937901e-02  3.9776906605223115e-02  7.3440624543957750e-02  1.7409704417587442e-02  3.2136068163986141e-02  4.1437857230861665e-02  4.0578008501076464e-02  3.2502980277872420e-02  8.3031707495057044e-03  9.8953874102123470e-03  8.2478166427094862e-03  6.1278865777895115e-03  8.4922288960626625e-03  4.5035025735400414e-02  1.0513123344588256e-02  6.1961981428842683e-02  6.2660652962063509e-02  6.4109225903015071e-02  7.5364173129974675e-03  4.2035303824581011e-02  5.6350135170918525e-02  5.5114844593911382e-02  4.6805885355107317e-02  5.3418506298875722e-03  1.3790025315940880e-02  4.5199487216237476e-02  6.0331827113654361e-02  2.1872326854155615e-02  3.0383233536903493e-02  6.2633915476604435e-02  6.1359146785273579e-02  4.1124235454826290e-02  2.5769956115402667e-02  2.2404181072139751e-02  6.9881390040661781e-02  1.1030870580298799e-02  6.7795976111113931e-02  5.6063830641430870e-03  1.9496321124493989e-02  6.2870613877399451e-02  3.4374247726979841e-02  1.5984123124641311e-02  1.5114615402524333e-02  1.6616091835752297e-02  8.7057881430713073e-03  7.7786544724017491e-03  5.7025326140013070e-03  4.6167206497931398e-03  7.6596588698842121e-03  5.5916171797768238e-03  1.4178352276136523e-02  4.8816331127089878e-02  8.3108726035434743e-03  9.5515165672969207e-03  7.1311715323944577e-02  7.1889731427584133e-02  1.1215915220139022e-02  3.0063584620109732e-02  5.0194127724539073e-03  5.8027044721131502e-02  6.2050418778140472e-02  7.2174856048017886e-03  6.8898496246816945e-02  1.3881731791385268e-02  1.8988800911886563e-02  6.5911523647800138e-03  5.7673143320915742e-02  5.2815165917460861e-02  9.7289418044128675e-03  7.3889773646400259e-02  1.3751332427398118e-02  9.4380819182739387e-03  1.7595345819579333e-02  7.1750446707740098e-02  7.2031821008554778e-02  7.3730221293874729e-02  4.3738388600891860e-02  3.5726902282621979e-02  5.6146733964161040e-02  3.7570708542413601e-02  1.3720691992941124e-02  5.5171139639264143e-02  2.9855971932605543e-02  7.2031821008554764e-02  6.3039954936733297e-02  9.9579750532104196e-03  1.3476854320451929e-02  6.4685970984728142e-02  2.3182468275086045e-02  3.6372864018592042e-02  6.0763567622716612e-02  4.6043809229208504e-02  7.6348235701816499e-03  4.2945459544430957e-02  4.9563186720196287e-03  1.3071494484249947e-02  1.1451657642463970e-02  3.2549521150505092e-02  5.0008709831259469e-02  3.9833542671938157e-02  5.2497673648618952e-02  7.2883424949287373e-02  1.1529204772161298e-02  2.0605688260005507e-02  6.7523893903945656e-02  6.5811285855835913e-02  9.0334033760466181e-03  4.4678035169110814e-02  5.0411360536406852e-02  5.1152654634254446e-02  1.9973032165642203e-02  3.8362504761479704e-02  1.1160638536741299e-02  6.5800012857436183e-02  6.6633836307433247e-02  2.0309872321336377e-02  0.0000000000000000e+00  2.0304618789946511e-02  2.4564142219122297e-02  3.3075050159957320e-02  7.9243379592602407e-03  7.7761503913744414e-03  4.9109409781300378e-03  8.3715772162627905e-03  3.1727165053383570e-02  2.0434986265374409e-02  1.3830255083239361e-02  1.6071534348364898e-02  1.3583656468911113e-02  7.0242417224914061e-02  2.0608034284403928e-02  1.1579813055455648e-02  2.7538982347620096e-02  1.9476947586402404e-02  9.0658606107845551e-03  3.4456516767056675e-02  2.5294623964388172e-02  1.2336728499021926e-02  6.5255522771797650e-02  2.8492257364518880e-02  5.3184627149426282e-02  2.5429723522837133e-02  1.1210862517154275e-02  6.4698740762218140e-02  6.3656274109441371e-02  2.4989534550393371e-02  6.7467321878233399e-02  6.9044628711593337e-02  1.2953960561384785e-02  2.3238831609925768e-02  2.7336242532186049e-02  8.4846086869234290e-03  4.4662788380711395e-02  3.1762216265909131e-02  7.1954730138976561e-02  1.7778011621272502e-02  5.1369830203275277e-02  6.6042898154186583e-02  1.8358942233734767e-02  3.6606284135863115e-02  2.6286464450374667e-02  7.2031821008554778e-02  5.6096069558945319e-02  4.8104247061544897e-02  4.8881504062520370e-02  2.6080820936781077e-02  4.4893329447413385e-03  5.7991199626930856e-19  7.9562243409453167e-03  9.4959984217813549e-03  2.3289355417688191e-02  1.0301880054128210e-02  3.6162137823328055e-02  6.2869709324524563e-19  1.0916006841886235e-02  1.8520739125766149e-02  1.6307043124264335e-02  4.7560022154034522e-02  2.9472130914791436e-02  8.9314429263399712e-03  8.8813052728224963e-03  2.6972549138309911e-02  2.1158778314980566e-02  1.2319246495577609e-02  6.6536787788877588e-02  5.3638899809293636e-02  7.2031821008554764e-02  7.2031821008554764e-02  6.6298787996251260e-02  6.2144741760226926e-02  6.6669481345024290e-02  6.0282763552489231e-02  4.9240502642566741e-02  3.6713573032072559e-02  8.9265336097732444e-03  7.0860207332074043e-02  5.9265973303912367e-02  1.2360230458443098e-02  4.1511277527194763e-03  1.1874720676266317e-18  6.7713049140839913e-03  5.2103242543508135e-03  8.1538651917671488e-03  9.3890672330727409e-03  2.5637982719466667e-02  1.6000482968350320e-02  8.5865178345237766e-03  0.0000000000000000e+00  8.7226033252546797e-03  7.0403989147135913e-19  5.3389708645233118e-02  4.7193858737213448e-02  3.9798761772896561e-02  8.0750288466084636e-03  4.9680024213263160e-02  </DataArray> 
</PointData> 
</Piece>
</UnstructuredGrid>
</VTKFile>