<?xml version="1.0"?>
<VTKFile type="UnstructuredGrid"  version="0.1"  >
<UnstructuredGrid>
<Piece  NumberOfPoints="65" NumberOfCells="64">
<Points>
<DataArray  type="Float64"  NumberOfComponents="3"  format="ascii">0 0 0  0.0625 0 0  0.125 0 0  0.1875 0 0  0.25 0 0  0.3125 0 0  0.375 0 0  0.4375 0 0  0.5 0 0  0.5625 0 0  0.625 0 0  0.6875 0 0  0.75 0 0  0.8125 0 0  0.875 0 0  0.9375 0 0  1 0 0  1.0625 0 0  1.125 0 0  1.1875 0 0  1.25 0 0  1.3125 0 0  1.375 0 0  1.4375 0 0  1.5 0 0  1.5625 0 0  1.625 0 0  1.6875 0 0  1.75 0 0  1.8125 0 0  1.875 0 0  1.9375 0 0  2 0 0  2.0625 0 0  2.125 0 0  2.1875 0 0  2.25 0 0  2.3125 0 0  2.375 0 0  2.4375 0 0  2.5 0 0  2.5625 0 0  2.625 0 0  2.6875 0 0  2.75 0 0  2.8125 0 0  2.875 0 0  2.9375 0 0  3 0 0  3.0625 0 0  3.125 0 0  3.1875 0 0  3.25 0 0  3.3125 0 0  3.375 0 0  3.4375 0 0  3.5 0 0  3.5625 0 0  3.625 0 0  3.6875 0 0  3.75 0 0  3.8125 0 0  3.875 0 0  3.9375 0 0  4 0 0  </DataArray>
</Points>
<Cells>
<DataArray  type="UInt32"  Name="connectivity"  format="ascii">0 1  1 2  2 3  3 4  4 5  5 6  6 7  7 8  8 9  9 10  10 11  11 12  12 13  13 14  14 15  15 16  16 17  17 18  18 19  19 20  20 21  21 22  22 23  23 24  24 25  25 26  26 27  27 28  28 29  29 30  30 31  31 32  32 33  33 34  34 35  35 36  36 37  37 38  38 39  39 40  40 41  41 42  42 43  43 44  44 45  45 46  46 47  47 48  48 49  49 50  50 51  51 52  52 53  53 54  54 55  55 56  56 57  57 58  58 59  59 60  60 61  61 62  62 63  63 64  </DataArray>
<DataArray  type="UInt32"  Name="offsets"  format="ascii">2 4 6 8 10 12 14 16 18 20 22 24 26 28 30 32 34 36 38 40 42 44 46 48 50 52 54 56 58 60 62 64 66 68 70 72 74 76 78 80 82 84 86 88 90 92 94 96 98 100 102 104 106 108 110 112 114 116 118 120 122 124 126 128 </DataArray>
<DataArray  type="UInt8"  Name="types"  format="ascii">3 3 3 3 3 3 3 3 3 3 3 3 3 3 3 3 3 3 3 3 3 3 3 3 3 3 3 3 3 3 3 3 3 3 3 3 3 3 3 3 3 3 3 3 3 3 3 3 3 3 3 3 3 3 3 3 3 3 3 3 3 3 3 3 </DataArray>
</Cells>
<PointData  Scalars="U"> 
<DataArray  type="Float64"  Name="U"  format="ascii">0.0000000000000000e+00  2.3118366602092769e-01  4.5502816763418824e-01  6.7153350495979569e-01  8.8069967809089056e-01  1.0825266870982904e+00  1.2770145320346973e+00  1.4641632129384698e+00  1.6439727298368894e+00  1.8164430827488984e+00  1.9815742716873326e+00  2.1393662966606692e+00  2.2898191576743625e+00  2.4329328547318290e+00  2.5687073878351532e+00  2.6971427569855693e+00  2.8182389621837900e+00  2.9319960034302111e+00  3.0384138807250505e+00  3.1374925940684228e+00  3.2292321434603872e+00  3.3136325289009712e+00  3.3906937503901906e+00  3.4604158079280500e+00  3.5227987015145557e+00  3.5778424311497057e+00  3.6255469968335019e+00  3.6659123985659452e+00  3.6989386363470342e+00  3.7246257101767717e+00  3.7429736200551553e+00  3.7539823659821856e+00  3.7576519479578625e+00  3.7539823659821843e+00  3.7429736200551540e+00  3.7246257101767704e+00  3.6989386363470333e+00  3.6659123985659425e+00  3.6255469968334957e+00  3.5778424311496919e+00  3.5227987015145232e+00  3.4604158079279745e+00  3.3906937503900134e+00  3.3136325289005648e+00  3.2292321434594711e+00  3.1374925940664125e+00  3.0384138807207433e+00  2.9319960034212240e+00  2.8182389621655299e+00  2.6971427569494435e+00  2.5687073877655515e+00  2.4329328546012232e+00  2.2898191574355953e+00  2.1393662962352411e+00  1.9815742709481952e+00  1.8164430814960264e+00  1.6439727277637419e+00  1.4641632095874682e+00  1.2770145267400606e+00  1.0825266789151260e+00  8.8069966571006120e-01  6.7153348660945944e-01  4.5502814096937361e-01  2.3118362800506465e-01  -5.3218618425426347e-08  </DataArray> 
</PointData> 
</Piece>
</UnstructuredGrid>
</VTKFile>