<?xml version="1.0"?>
<VTKFile type="UnstructuredGrid"  version="0.1"  >
<UnstructuredGrid>
<Piece  NumberOfPoints="65" NumberOfCells="64">
<Points>
<DataArray  type="Float64"  NumberOfComponents="3"  format="ascii">0 0 0  0.0625 0 0  0.125 0 0  0.1875 0 0  0.25 0 0  0.3125 0 0  0.375 0 0  0.4375 0 0  0.5 0 0  0.5625 0 0  0.625 0 0  0.6875 0 0  0.75 0 0  0.8125 0 0  0.875 0 0  0.9375 0 0  1 0 0  1.0625 0 0  1.125 0 0  1.1875 0 0  1.25 0 0  1.3125 0 0  1.375 0 0  1.4375 0 0  1.5 0 0  1.5625 0 0  1.625 0 0  1.6875 0 0  1.75 0 0  1.8125 0 0  1.875 0 0  1.9375 0 0  2 0 0  2.0625 0 0  2.125 0 0  2.1875 0 0  2.25 0 0  2.3125 0 0  2.375 0 0  2.4375 0 0  2.5 0 0  2.5625 0 0  2.625 0 0  2.6875 0 0  2.75 0 0  2.8125 0 0  2.875 0 0  2.9375 0 0  3 0 0  3.0625 0 0  3.125 0 0  3.1875 0 0  3.25 0 0  3.3125 0 0  3.375 0 0  3.4375 0 0  3.5 0 0  3.5625 0 0  3.625 0 0  3.6875 0 0  3.75 0 0  3.8125 0 0  3.875 0 0  3.9375 0 0  4 0 0  </DataArray>
</Points>
<Cells>
<DataArray  type="UInt32"  Name="connectivity"  format="ascii">0 1  1 2  2 3  3 4  4 5  5 6  6 7  7 8  8 9  9 10  10 11  11 12  12 13  13 14  14 15  15 16  16 17  17 18  18 19  19 20  20 21  21 22  22 23  23 24  24 25  25 26  26 27  27 28  28 29  29 30  30 31  31 32  32 33  33 34  34 35  35 36  36 37  37 38  38 39  39 40  40 41  41 42  42 43  43 44  44 45  45 46  46 47  47 48  48 49  49 50  50 51  51 52  52 53  53 54  54 55  55 56  56 57  57 58  58 59  59 60  60 61  61 62  62 63  63 64  </DataArray>
<DataArray  type="UInt32"  Name="offsets"  format="ascii">2 4 6 8 10 12 14 16 18 20 22 24 26 28 30 32 34 36 38 40 42 44 46 48 50 52 54 56 58 60 62 64 66 68 70 72 74 76 78 80 82 84 86 88 90 92 94 96 98 100 102 104 106 108 110 112 114 116 118 120 122 124 126 128 </DataArray>
<DataArray  type="UInt8"  Name="types"  format="ascii">3 3 3 3 3 3 3 3 3 3 3 3 3 3 3 3 3 3 3 3 3 3 3 3 3 3 3 3 3 3 3 3 3 3 3 3 3 3 3 3 3 3 3 3 3 3 3 3 3 3 3 3 3 3 3 3 3 3 3 3 3 3 3 3 </DataArray>
</Cells>
<PointData  Scalars="ud"> 
<DataArray  type="Float64"  Name="ud"  format="ascii">0.0000000000000000e+00  2.1973698554415713e-01  4.3249819376945214e-01  6.3828362467588495e-01  8.3709327826345570e-01  1.0289271545321643e+00  1.2137852534820108e+00  1.3916675751129952e+00  1.5625741194251173e+00  1.7265048864183774e+00  1.8834598760927754e+00  2.0334390884483113e+00  2.1764425234849849e+00  2.3124701812027966e+00  2.4415220616017459e+00  2.5635981646818333e+00  2.6786984904430584e+00  2.7868230388854212e+00  2.8879718100089224e+00  2.9821448038135610e+00  3.0693420202993376e+00  3.1495634594662523e+00  3.2228091213143046e+00  3.2890790058434947e+00  3.3483731130538228e+00  3.4006914429452890e+00  3.4460339955178929e+00  3.4844007707716345e+00  3.5157917687065141e+00  3.5402069893225314e+00  3.5576464326196868e+00  3.5681100985979799e+00  3.5715979872574111e+00  3.5681100985979799e+00  3.5576464326196868e+00  3.5402069893225314e+00  3.5157917687065141e+00  3.4844007707716345e+00  3.4460339955178929e+00  3.4006914429452890e+00  3.3483731130538228e+00  3.2890790058434947e+00  3.2228091213143046e+00  3.1495634594662523e+00  3.0693420202993376e+00  2.9821448038135610e+00  2.8879718100089224e+00  2.7868230388854212e+00  2.6786984904430584e+00  2.5635981646818333e+00  2.4415220616017459e+00  2.3124701812027966e+00  2.1764425234849849e+00  2.0334390884483113e+00  1.8834598760927754e+00  1.7265048864183774e+00  1.5625741194251173e+00  1.3916675751129952e+00  1.2137852534820108e+00  1.0289271545321643e+00  8.3709327826345570e-01  6.3828362467588495e-01  4.3249819376945214e-01  2.1973698554415713e-01  0.0000000000000000e+00  </DataArray> 
</PointData> 
</Piece>
</UnstructuredGrid>
</VTKFile>