<?xml version="1.0"?>
<VTKFile type="UnstructuredGrid"  version="0.1"  >
<UnstructuredGrid>
<Piece  NumberOfPoints="65" NumberOfCells="64">
<Points>
<DataArray  type="Float64"  NumberOfComponents="3"  format="ascii">0 0 0  0.0625 0 0  0.125 0 0  0.1875 0 0  0.25 0 0  0.3125 0 0  0.375 0 0  0.4375 0 0  0.5 0 0  0.5625 0 0  0.625 0 0  0.6875 0 0  0.75 0 0  0.8125 0 0  0.875 0 0  0.9375 0 0  1 0 0  1.0625 0 0  1.125 0 0  1.1875 0 0  1.25 0 0  1.3125 0 0  1.375 0 0  1.4375 0 0  1.5 0 0  1.5625 0 0  1.625 0 0  1.6875 0 0  1.75 0 0  1.8125 0 0  1.875 0 0  1.9375 0 0  2 0 0  2.0625 0 0  2.125 0 0  2.1875 0 0  2.25 0 0  2.3125 0 0  2.375 0 0  2.4375 0 0  2.5 0 0  2.5625 0 0  2.625 0 0  2.6875 0 0  2.75 0 0  2.8125 0 0  2.875 0 0  2.9375 0 0  3 0 0  3.0625 0 0  3.125 0 0  3.1875 0 0  3.25 0 0  3.3125 0 0  3.375 0 0  3.4375 0 0  3.5 0 0  3.5625 0 0  3.625 0 0  3.6875 0 0  3.75 0 0  3.8125 0 0  3.875 0 0  3.9375 0 0  4 0 0  </DataArray>
</Points>
<Cells>
<DataArray  type="UInt32"  Name="connectivity"  format="ascii">0 1  1 2  2 3  3 4  4 5  5 6  6 7  7 8  8 9  9 10  10 11  11 12  12 13  13 14  14 15  15 16  16 17  17 18  18 19  19 20  20 21  21 22  22 23  23 24  24 25  25 26  26 27  27 28  28 29  29 30  30 31  31 32  32 33  33 34  34 35  35 36  36 37  37 38  38 39  39 40  40 41  41 42  42 43  43 44  44 45  45 46  46 47  47 48  48 49  49 50  50 51  51 52  52 53  53 54  54 55  55 56  56 57  57 58  58 59  59 60  60 61  61 62  62 63  63 64  </DataArray>
<DataArray  type="UInt32"  Name="offsets"  format="ascii">2 4 6 8 10 12 14 16 18 20 22 24 26 28 30 32 34 36 38 40 42 44 46 48 50 52 54 56 58 60 62 64 66 68 70 72 74 76 78 80 82 84 86 88 90 92 94 96 98 100 102 104 106 108 110 112 114 116 118 120 122 124 126 128 </DataArray>
<DataArray  type="UInt8"  Name="types"  format="ascii">3 3 3 3 3 3 3 3 3 3 3 3 3 3 3 3 3 3 3 3 3 3 3 3 3 3 3 3 3 3 3 3 3 3 3 3 3 3 3 3 3 3 3 3 3 3 3 3 3 3 3 3 3 3 3 3 3 3 3 3 3 3 3 3 </DataArray>
</Cells>
<PointData  Scalars="U"> 
<DataArray  type="Float64"  Name="U"  format="ascii">0.0000000000000000e+00  1.0420253585558205e-01  2.0509705143921245e-01  3.0268354710022161e-01  3.9696202317141743e-01  4.8793247996911221e-01  5.7559491779319927e-01  6.5994933692727198e-01  7.4099573763878146e-01  8.1873412017922509e-01  8.9316448478436505e-01  9.6428683167446361e-01  1.0321011610545368e+00  1.0966074731146189e+00  1.1578057680300282e+00  1.2156960459616359e+00  1.2702783070561283e+00  1.3215525514462585e+00  1.3695187792510848e+00  1.4141769905761890e+00  1.4555271855138734e+00  1.4935693641433303e+00  1.5283035265307841e+00  1.5597296727296006e+00  1.5878478027803642e+00  1.6126579167109143e+00  1.6341600145363535e+00  1.6523540962590082e+00  1.6672401618683601e+00  1.6788182113409338e+00  1.6870882446401534e+00  1.6920502617161592e+00  1.6937042625055956e+00  1.6920502469313643e+00  1.6870882149023572e+00  1.6788181663131605e+00  1.6672401010437403e+00  1.6523540189591186e+00  1.6341599199090382e+00  1.6126578037276260e+00  1.5878476702330602e+00  1.5597295192272482e+00  1.5283033504955246e+00  1.4935691638063728e+00  1.4555269589111812e+00  1.4141767355440418e+00  1.3695184934215983e+00  1.3215522322429503e+00  1.2702779516896272e+00  1.2156956514256319e+00  1.1578053310975718e+00  1.0966069903348741e+00  1.0321006287501007e+00  9.6428624593936718e-01  8.9316384148286809e-01  8.1873341494552021e-01  7.4099496587772462e-01  6.5994849381625087e-01  5.7559399828524849e-01  4.8793147879738663e-01  3.9696093485512407e-01  3.0268236595210563e-01  2.0509577157468872e-01  1.0420115120359338e-01  -1.4956843252178570e-06  </DataArray> 
</PointData> 
</Piece>
</UnstructuredGrid>
</VTKFile>