<?xml version="1.0"?>
<VTKFile type="UnstructuredGrid"  version="0.1"  >
<UnstructuredGrid>
<Piece  NumberOfPoints="65" NumberOfCells="64">
<Points>
<DataArray  type="Float64"  NumberOfComponents="3"  format="ascii">0 0 0  0.0625 0 0  0.125 0 0  0.1875 0 0  0.25 0 0  0.3125 0 0  0.375 0 0  0.4375 0 0  0.5 0 0  0.5625 0 0  0.625 0 0  0.6875 0 0  0.75 0 0  0.8125 0 0  0.875 0 0  0.9375 0 0  1 0 0  1.0625 0 0  1.125 0 0  1.1875 0 0  1.25 0 0  1.3125 0 0  1.375 0 0  1.4375 0 0  1.5 0 0  1.5625 0 0  1.625 0 0  1.6875 0 0  1.75 0 0  1.8125 0 0  1.875 0 0  1.9375 0 0  2 0 0  2.0625 0 0  2.125 0 0  2.1875 0 0  2.25 0 0  2.3125 0 0  2.375 0 0  2.4375 0 0  2.5 0 0  2.5625 0 0  2.625 0 0  2.6875 0 0  2.75 0 0  2.8125 0 0  2.875 0 0  2.9375 0 0  3 0 0  3.0625 0 0  3.125 0 0  3.1875 0 0  3.25 0 0  3.3125 0 0  3.375 0 0  3.4375 0 0  3.5 0 0  3.5625 0 0  3.625 0 0  3.6875 0 0  3.75 0 0  3.8125 0 0  3.875 0 0  3.9375 0 0  4 0 0  </DataArray>
</Points>
<Cells>
<DataArray  type="UInt32"  Name="connectivity"  format="ascii">0 1  1 2  2 3  3 4  4 5  5 6  6 7  7 8  8 9  9 10  10 11  11 12  12 13  13 14  14 15  15 16  16 17  17 18  18 19  19 20  20 21  21 22  22 23  23 24  24 25  25 26  26 27  27 28  28 29  29 30  30 31  31 32  32 33  33 34  34 35  35 36  36 37  37 38  38 39  39 40  40 41  41 42  42 43  43 44  44 45  45 46  46 47  47 48  48 49  49 50  50 51  51 52  52 53  53 54  54 55  55 56  56 57  57 58  58 59  59 60  60 61  61 62  62 63  63 64  </DataArray>
<DataArray  type="UInt32"  Name="offsets"  format="ascii">2 4 6 8 10 12 14 16 18 20 22 24 26 28 30 32 34 36 38 40 42 44 46 48 50 52 54 56 58 60 62 64 66 68 70 72 74 76 78 80 82 84 86 88 90 92 94 96 98 100 102 104 106 108 110 112 114 116 118 120 122 124 126 128 </DataArray>
<DataArray  type="UInt8"  Name="types"  format="ascii">3 3 3 3 3 3 3 3 3 3 3 3 3 3 3 3 3 3 3 3 3 3 3 3 3 3 3 3 3 3 3 3 3 3 3 3 3 3 3 3 3 3 3 3 3 3 3 3 3 3 3 3 3 3 3 3 3 3 3 3 3 3 3 3 </DataArray>
</Cells>
<PointData  Scalars="U"> 
<DataArray  type="Float64"  Name="U"  format="ascii">0.0000000000000000e+00  -7.7331528785305359e-02  -1.5554706063496471e-01  -2.3440602752979400e-01  -3.1366973377981827e-01  -3.9310230144333053e-01  -4.7247160603192001e-01  -5.5155019918261805e-01  -6.3011621498691983e-01  -7.0795425667718404e-01  -7.8485626038352985e-01  -8.6062233268860988e-01  -9.3506155872341590e-01  -1.0079927775645494e+00  -1.0792453217123723e+00  -1.1486597174505637e+00  -1.2160883429115248e+00  -1.2813960406998315e+00  -1.3444606819588591e+00  -1.4051736788054949e+00  -1.4634404421065714e+00  -1.5191807816306597e+00  -1.5723292456828808e+00  -1.6228353974213741e+00  -1.6706640251652074e+00  -1.7157952841380968e+00  -1.7582247672537421e+00  -1.7979635027401675e+00  -1.8350378766253306e+00  -1.8694894783673552e+00  -1.9013748682125189e+00  -1.9307652652045646e+00  -1.9577461551513753e+00  -1.9824168182801425e+00  -2.0048897767796259e+00  -2.0252901629367921e+00  -2.0437550091228491e+00  -2.0604324614671992e+00  -2.0754809196729096e+00  -2.0890681060684235e+00  -2.1013700676511160e+00  -2.1125701155514034e+00  -2.1228577070231758e+00  -2.1324272757381615e+00  -2.1414770168186967e+00  -2.1502076336749214e+00  -2.1588210543081425e+00  -2.1675191252911699e+00  -2.1765022921283985e+00  -2.1859682751228573e+00  -2.1961107502248356e+00  -2.2071180445979723e+00  -2.2191718568061010e+00  -2.2324460115908518e+00  -2.2471052591708771e+00  -2.2633041288447200e+00  -2.2811858464188592e+00  -2.3008813246100353e+00  -2.3225082350881454e+00  -2.3461701702363924e+00  -2.3719559020141445e+00  -2.3999387445223501e+00  -2.4301760260001597e+00  -2.4627086750348930e+00  -2.4975609247576505e+00  </DataArray> 
</PointData> 
</Piece>
</UnstructuredGrid>
</VTKFile>