<?xml version="1.0"?>
<VTKFile type="UnstructuredGrid"  version="0.1"  >
<UnstructuredGrid>
<Piece  NumberOfPoints="65" NumberOfCells="64">
<Points>
<DataArray  type="Float64"  NumberOfComponents="3"  format="ascii">0 0 0  0.0625 0 0  0.125 0 0  0.1875 0 0  0.25 0 0  0.3125 0 0  0.375 0 0  0.4375 0 0  0.5 0 0  0.5625 0 0  0.625 0 0  0.6875 0 0  0.75 0 0  0.8125 0 0  0.875 0 0  0.9375 0 0  1 0 0  1.0625 0 0  1.125 0 0  1.1875 0 0  1.25 0 0  1.3125 0 0  1.375 0 0  1.4375 0 0  1.5 0 0  1.5625 0 0  1.625 0 0  1.6875 0 0  1.75 0 0  1.8125 0 0  1.875 0 0  1.9375 0 0  2 0 0  2.0625 0 0  2.125 0 0  2.1875 0 0  2.25 0 0  2.3125 0 0  2.375 0 0  2.4375 0 0  2.5 0 0  2.5625 0 0  2.625 0 0  2.6875 0 0  2.75 0 0  2.8125 0 0  2.875 0 0  2.9375 0 0  3 0 0  3.0625 0 0  3.125 0 0  3.1875 0 0  3.25 0 0  3.3125 0 0  3.375 0 0  3.4375 0 0  3.5 0 0  3.5625 0 0  3.625 0 0  3.6875 0 0  3.75 0 0  3.8125 0 0  3.875 0 0  3.9375 0 0  4 0 0  </DataArray>
</Points>
<Cells>
<DataArray  type="UInt32"  Name="connectivity"  format="ascii">0 1  1 2  2 3  3 4  4 5  5 6  6 7  7 8  8 9  9 10  10 11  11 12  12 13  13 14  14 15  15 16  16 17  17 18  18 19  19 20  20 21  21 22  22 23  23 24  24 25  25 26  26 27  27 28  28 29  29 30  30 31  31 32  32 33  33 34  34 35  35 36  36 37  37 38  38 39  39 40  40 41  41 42  42 43  43 44  44 45  45 46  46 47  47 48  48 49  49 50  50 51  51 52  52 53  53 54  54 55  55 56  56 57  57 58  58 59  59 60  60 61  61 62  62 63  63 64  </DataArray>
<DataArray  type="UInt32"  Name="offsets"  format="ascii">2 4 6 8 10 12 14 16 18 20 22 24 26 28 30 32 34 36 38 40 42 44 46 48 50 52 54 56 58 60 62 64 66 68 70 72 74 76 78 80 82 84 86 88 90 92 94 96 98 100 102 104 106 108 110 112 114 116 118 120 122 124 126 128 </DataArray>
<DataArray  type="UInt8"  Name="types"  format="ascii">3 3 3 3 3 3 3 3 3 3 3 3 3 3 3 3 3 3 3 3 3 3 3 3 3 3 3 3 3 3 3 3 3 3 3 3 3 3 3 3 3 3 3 3 3 3 3 3 3 3 3 3 3 3 3 3 3 3 3 3 3 3 3 3 </DataArray>
</Cells>
<PointData  Scalars="U"> 
<DataArray  type="Float64"  Name="U"  format="ascii">0.0000000000000000e+00  -2.6822499279350411e-03  -1.0935713963906975e-02  -2.3874247076690724e-02  -4.0649394902230844e-02  -6.0466228326603477e-02  -8.2595837410175343e-02  -1.0638395608478154e-01  -1.3125557019950757e-01  -1.5671571702757567e-01  -1.8234697145715723e-01  -2.0780430624877838e-01  -2.3280810279617545e-01  -2.5713608312732233e-01  -2.8061485362937794e-01  -3.0311162234934935e-01  -3.2452650125984611e-01  -3.4478565525881627e-01  -3.6383542726896523e-01  -3.8163746305095542e-01  -3.9816478345555761e-01  -4.1339870431511355e-01  -4.2732648057572131e-01  -4.3993954584416151e-01  -4.5123222544576441e-01  -4.6120081527300466e-01  -4.6984293618902678e-01  -4.7715709178777288e-01  -4.8314237425892076e-01  -4.8779827822072130e-01  -4.9112459561355148e-01  -4.9312137654135840e-01  -4.9378895213075963e-01  -4.9312802717390158e-01  -4.9113986393319670e-01  -4.8782659569067904e-01  -4.8319173136318527e-01  -4.7724094291719571e-01  -4.6998326756493353e-01  -4.6143290862485342e-01  -4.5161188333785401e-01  -4.4055384178414025e-01  -4.2830946407531056e-01  -4.1495392415451671e-01  -4.0059697237166919e-01  -3.8539621239494776e-01  -3.6957409997463098e-01  -3.5343903439960328e-01  -3.3741060935152151e-01  -3.2204860594281987e-01  -3.0808463302043620e-01  -2.9645446704968359e-01  -2.8832818180476610e-01  -2.8513420922241106e-01  -2.8857271608544188e-01  -3.0061333606448276e-01  -3.2347258794403766e-01  -3.5956741673462145e-01  -4.1144328476444875e-01  -4.8167802084101746e-01  -5.7276591885633910e-01  -6.8698989269013966e-01  -8.2629225561618380e-01  -9.9215631036858853e-01  -1.1855109569118412e+00  </DataArray> 
</PointData> 
</Piece>
</UnstructuredGrid>
</VTKFile>