<?xml version="1.0"?>
<VTKFile type="UnstructuredGrid"  version="0.1"  >
<UnstructuredGrid>
<Piece  NumberOfPoints="65" NumberOfCells="64">
<Points>
<DataArray  type="Float64"  NumberOfComponents="3"  format="ascii">0 0 0  0.0625 0 0  0.125 0 0  0.1875 0 0  0.25 0 0  0.3125 0 0  0.375 0 0  0.4375 0 0  0.5 0 0  0.5625 0 0  0.625 0 0  0.6875 0 0  0.75 0 0  0.8125 0 0  0.875 0 0  0.9375 0 0  1 0 0  1.0625 0 0  1.125 0 0  1.1875 0 0  1.25 0 0  1.3125 0 0  1.375 0 0  1.4375 0 0  1.5 0 0  1.5625 0 0  1.625 0 0  1.6875 0 0  1.75 0 0  1.8125 0 0  1.875 0 0  1.9375 0 0  2 0 0  2.0625 0 0  2.125 0 0  2.1875 0 0  2.25 0 0  2.3125 0 0  2.375 0 0  2.4375 0 0  2.5 0 0  2.5625 0 0  2.625 0 0  2.6875 0 0  2.75 0 0  2.8125 0 0  2.875 0 0  2.9375 0 0  3 0 0  3.0625 0 0  3.125 0 0  3.1875 0 0  3.25 0 0  3.3125 0 0  3.375 0 0  3.4375 0 0  3.5 0 0  3.5625 0 0  3.625 0 0  3.6875 0 0  3.75 0 0  3.8125 0 0  3.875 0 0  3.9375 0 0  4 0 0  </DataArray>
</Points>
<Cells>
<DataArray  type="UInt32"  Name="connectivity"  format="ascii">0 1  1 2  2 3  3 4  4 5  5 6  6 7  7 8  8 9  9 10  10 11  11 12  12 13  13 14  14 15  15 16  16 17  17 18  18 19  19 20  20 21  21 22  22 23  23 24  24 25  25 26  26 27  27 28  28 29  29 30  30 31  31 32  32 33  33 34  34 35  35 36  36 37  37 38  38 39  39 40  40 41  41 42  42 43  43 44  44 45  45 46  46 47  47 48  48 49  49 50  50 51  51 52  52 53  53 54  54 55  55 56  56 57  57 58  58 59  59 60  60 61  61 62  62 63  63 64  </DataArray>
<DataArray  type="UInt32"  Name="offsets"  format="ascii">2 4 6 8 10 12 14 16 18 20 22 24 26 28 30 32 34 36 38 40 42 44 46 48 50 52 54 56 58 60 62 64 66 68 70 72 74 76 78 80 82 84 86 88 90 92 94 96 98 100 102 104 106 108 110 112 114 116 118 120 122 124 126 128 </DataArray>
<DataArray  type="UInt8"  Name="types"  format="ascii">3 3 3 3 3 3 3 3 3 3 3 3 3 3 3 3 3 3 3 3 3 3 3 3 3 3 3 3 3 3 3 3 3 3 3 3 3 3 3 3 3 3 3 3 3 3 3 3 3 3 3 3 3 3 3 3 3 3 3 3 3 3 3 3 </DataArray>
</Cells>
<PointData  Scalars="U"> 
<DataArray  type="Float64"  Name="U"  format="ascii">0.0000000000000000e+00  1.8075064777036376e-01  3.5576317793760737e-01  5.2503759077894341e-01  6.8857388654574025e-01  8.4637206546494781e-01  9.9843212774057399e-01  1.1447540735551907e+00  1.2853379030714542e+00  1.4201836164336181e+00  1.5492912137690273e+00  1.6726606951895744e+00  1.7902920607931119e+00  1.9021853106647975e+00  2.0083404448783848e+00  2.1087574634974260e+00  2.2034363665764021e+00  2.2923771541617706e+00  2.3755798262929151e+00  2.4530443830030220e+00  2.5247708243198632e+00  2.5907591502664862e+00  2.6510093608618313e+00  2.7055214561212515e+00  2.7542954360569585e+00  2.7973313006783842e+00  2.8346290499924600e+00  2.8661886840038235e+00  2.8920102027149341e+00  2.9120936061261169e+00  2.9264388942355155e+00  2.9350460670389591e+00  2.9379151245297357e+00  2.9350460666982681e+00  2.9264388935316834e+00  2.9120936050132600e+00  2.8920102011217694e+00  2.8661886818306628e+00  2.8346290471071369e+00  2.7973312969110338e+00  2.7542954311935932e+00  2.7055214498960329e+00  2.6510093529479599e+00  2.5907591402656176e+00  2.5247708117499554e+00  2.4530443672845386e+00  2.3755798067333003e+00  2.2923771299381652e+00  2.2034363367165430e+00  2.1087574268587415e+00  2.0083404001253138e+00  1.9021852562443979e+00  1.7902919949090657e+00  1.6726606157747617e+00  1.5492911184568601e+00  1.4201835025284146e+00  1.2853377675181503e+00  1.1447539129087665e+00  9.9843193813560349e-01  8.4637184258574016e-01  6.8857362559756974e-01  5.2503728646090952e-01  3.5576282441768536e-01  1.8075023866322468e-01  -4.7165181485525386e-07  </DataArray> 
</PointData> 
</Piece>
</UnstructuredGrid>
</VTKFile>