<?xml version="1.0"?>
<VTKFile type="UnstructuredGrid"  version="0.1"  >
<UnstructuredGrid>
<Piece  NumberOfPoints="65" NumberOfCells="64">
<Points>
<DataArray  type="Float64"  NumberOfComponents="3"  format="ascii">0 0 0  0.0625 0 0  0.125 0 0  0.1875 0 0  0.25 0 0  0.3125 0 0  0.375 0 0  0.4375 0 0  0.5 0 0  0.5625 0 0  0.625 0 0  0.6875 0 0  0.75 0 0  0.8125 0 0  0.875 0 0  0.9375 0 0  1 0 0  1.0625 0 0  1.125 0 0  1.1875 0 0  1.25 0 0  1.3125 0 0  1.375 0 0  1.4375 0 0  1.5 0 0  1.5625 0 0  1.625 0 0  1.6875 0 0  1.75 0 0  1.8125 0 0  1.875 0 0  1.9375 0 0  2 0 0  2.0625 0 0  2.125 0 0  2.1875 0 0  2.25 0 0  2.3125 0 0  2.375 0 0  2.4375 0 0  2.5 0 0  2.5625 0 0  2.625 0 0  2.6875 0 0  2.75 0 0  2.8125 0 0  2.875 0 0  2.9375 0 0  3 0 0  3.0625 0 0  3.125 0 0  3.1875 0 0  3.25 0 0  3.3125 0 0  3.375 0 0  3.4375 0 0  3.5 0 0  3.5625 0 0  3.625 0 0  3.6875 0 0  3.75 0 0  3.8125 0 0  3.875 0 0  3.9375 0 0  4 0 0  </DataArray>
</Points>
<Cells>
<DataArray  type="UInt32"  Name="connectivity"  format="ascii">0 1  1 2  2 3  3 4  4 5  5 6  6 7  7 8  8 9  9 10  10 11  11 12  12 13  13 14  14 15  15 16  16 17  17 18  18 19  19 20  20 21  21 22  22 23  23 24  24 25  25 26  26 27  27 28  28 29  29 30  30 31  31 32  32 33  33 34  34 35  35 36  36 37  37 38  38 39  39 40  40 41  41 42  42 43  43 44  44 45  45 46  46 47  47 48  48 49  49 50  50 51  51 52  52 53  53 54  54 55  55 56  56 57  57 58  58 59  59 60  60 61  61 62  62 63  63 64  </DataArray>
<DataArray  type="UInt32"  Name="offsets"  format="ascii">2 4 6 8 10 12 14 16 18 20 22 24 26 28 30 32 34 36 38 40 42 44 46 48 50 52 54 56 58 60 62 64 66 68 70 72 74 76 78 80 82 84 86 88 90 92 94 96 98 100 102 104 106 108 110 112 114 116 118 120 122 124 126 128 </DataArray>
<DataArray  type="UInt8"  Name="types"  format="ascii">3 3 3 3 3 3 3 3 3 3 3 3 3 3 3 3 3 3 3 3 3 3 3 3 3 3 3 3 3 3 3 3 3 3 3 3 3 3 3 3 3 3 3 3 3 3 3 3 3 3 3 3 3 3 3 3 3 3 3 3 3 3 3 3 </DataArray>
</Cells>
<PointData  Scalars="U"> 
<DataArray  type="Float64"  Name="U"  format="ascii">0.0000000000000000e+00  1.0461037364917038e-01  2.0589977979976662e-01  3.0386821880114262e-01  3.9851569098607531e-01  4.8984219667079759e-01  5.7784773615507945e-01  6.6253230972235344e-01  7.4389591763987661e-01  8.2193856015892719e-01  8.9666023751502544e-01  9.6806094992817726e-01  1.0361406976031327e+00  1.1008994807296528e+00  1.1623372994827863e+00  1.2204541540231388e+00  1.2752500444971413e+00  1.3267249710373064e+00  1.3748789337624712e+00  1.4197119327780185e+00  1.4612239681760779e+00  1.4994150400356985e+00  1.5342851484229938e+00  1.5658342933912532e+00  1.5940624749810191e+00  1.6189696932201290e+00  1.6405559481237177e+00  1.6588212396941855e+00  1.6737655679211236e+00  1.6853889327812044e+00  1.6936913342380344e+00  1.6986727722419690e+00  1.7003332467298984e+00  1.6986727576249996e+00  1.6936913048364601e+00  1.6853888882591814e+00  1.6737655077734612e+00  1.6588211632446594e+00  1.6405558545228598e+00  1.6189695814425267e+00  1.5940623438221644e+00  1.5658341414639891e+00  1.5342849741536175e+00  1.4994148416597812e+00  1.4612237437340780e+00  1.4197116801107572e+00  1.3748786505065611e+00  1.3267246546206239e+00  1.2752496921344338e+00  1.2204537627118710e+00  1.1623368659993289e+00  1.1008990016259259e+00  1.0361401692038104e+00  9.6806036832857334e-01  8.9665959857977096e-01  8.2193785952156173e-01  7.4389515070346279e-01  6.6253147166123350e-01  5.7784682191788439e-01  4.8984120098481609e-01  3.9851460836308800e-01  3.0386704354481803e-01  2.0589850601471030e-01  1.0460899525170966e-01  -1.4892692211904682e-06  </DataArray> 
</PointData> 
</Piece>
</UnstructuredGrid>
</VTKFile>