<?xml version="1.0"?>
<VTKFile type="UnstructuredGrid"  version="0.1"  >
<UnstructuredGrid>
<Piece  NumberOfPoints="65" NumberOfCells="64">
<Points>
<DataArray  type="Float64"  NumberOfComponents="3"  format="ascii">0 0 0  0.0625 0 0  0.125 0 0  0.1875 0 0  0.25 0 0  0.3125 0 0  0.375 0 0  0.4375 0 0  0.5 0 0  0.5625 0 0  0.625 0 0  0.6875 0 0  0.75 0 0  0.8125 0 0  0.875 0 0  0.9375 0 0  1 0 0  1.0625 0 0  1.125 0 0  1.1875 0 0  1.25 0 0  1.3125 0 0  1.375 0 0  1.4375 0 0  1.5 0 0  1.5625 0 0  1.625 0 0  1.6875 0 0  1.75 0 0  1.8125 0 0  1.875 0 0  1.9375 0 0  2 0 0  2.0625 0 0  2.125 0 0  2.1875 0 0  2.25 0 0  2.3125 0 0  2.375 0 0  2.4375 0 0  2.5 0 0  2.5625 0 0  2.625 0 0  2.6875 0 0  2.75 0 0  2.8125 0 0  2.875 0 0  2.9375 0 0  3 0 0  3.0625 0 0  3.125 0 0  3.1875 0 0  3.25 0 0  3.3125 0 0  3.375 0 0  3.4375 0 0  3.5 0 0  3.5625 0 0  3.625 0 0  3.6875 0 0  3.75 0 0  3.8125 0 0  3.875 0 0  3.9375 0 0  4 0 0  </DataArray>
</Points>
<Cells>
<DataArray  type="UInt32"  Name="connectivity"  format="ascii">0 1  1 2  2 3  3 4  4 5  5 6  6 7  7 8  8 9  9 10  10 11  11 12  12 13  13 14  14 15  15 16  16 17  17 18  18 19  19 20  20 21  21 22  22 23  23 24  24 25  25 26  26 27  27 28  28 29  29 30  30 31  31 32  32 33  33 34  34 35  35 36  36 37  37 38  38 39  39 40  40 41  41 42  42 43  43 44  44 45  45 46  46 47  47 48  48 49  49 50  50 51  51 52  52 53  53 54  54 55  55 56  56 57  57 58  58 59  59 60  60 61  61 62  62 63  63 64  </DataArray>
<DataArray  type="UInt32"  Name="offsets"  format="ascii">2 4 6 8 10 12 14 16 18 20 22 24 26 28 30 32 34 36 38 40 42 44 46 48 50 52 54 56 58 60 62 64 66 68 70 72 74 76 78 80 82 84 86 88 90 92 94 96 98 100 102 104 106 108 110 112 114 116 118 120 122 124 126 128 </DataArray>
<DataArray  type="UInt8"  Name="types"  format="ascii">3 3 3 3 3 3 3 3 3 3 3 3 3 3 3 3 3 3 3 3 3 3 3 3 3 3 3 3 3 3 3 3 3 3 3 3 3 3 3 3 3 3 3 3 3 3 3 3 3 3 3 3 3 3 3 3 3 3 3 3 3 3 3 3 </DataArray>
</Cells>
<PointData  Scalars="U"> 
<DataArray  type="Float64"  Name="U"  format="ascii">0.0000000000000000e+00  -5.2956315037030473e-02  -1.0880208987651611e-01  -1.6712066262556921e-01  -2.2749921312614330e-01  -2.8953067567984209e-01  -3.5281558267836288e-01  -4.1696381892235446e-01  -4.8159626893084773e-01  -5.4634634254533854e-01  -6.1086136752556097e-01  -6.7480384151537232e-01  -7.3785253961657982e-01  -7.9970347773118877e-01  -8.6007073570260739e-01  -9.1868714799006812e-01  -9.7530487303913416e-01  -1.0296958555633036e+00  -1.0816521985355452e+00  -1.1309864637233609e+00  -1.1775319210183490e+00  -1.2211427675562021e+00  -1.2616943376545551e+00  -1.2990833238876234e+00  -1.3332280281564974e+00  -1.3640686594062741e+00  -1.3915676917057944e+00  -1.4157102927794030e+00  -1.4365048288170572e+00  -1.4539834465621504e+00  -1.4682027283775665e+00  -1.4792444103318572e+00  -1.4872161474613534e+00  -1.4922523044028673e+00  -1.4945147437267421e+00  -1.4941935787196832e+00  -1.4915078522730689e+00  -1.4867060991366072e+00  -1.4800667453138832e+00  -1.4718982960164508e+00  -1.4625392625553171e+00  -1.4523577790101281e+00  -1.4417508616229187e+00  -1.4311432677192193e+00  -1.4209859166179064e+00  -1.4117538424459499e+00  -1.4039436579520626e+00  -1.3980705191697012e+00  -1.3946645928972032e+00  -1.3942670421516292e+00  -1.3974255586568618e+00  -1.4046894856315624e+00  -1.4166045881890019e+00  -1.4337075420591270e+00  -1.4565202235929924e+00  -1.4855438946197712e+00  -1.5212533842371478e+00  -1.5640913756201873e+00  -1.6144629090985778e+00  -1.6727302128361845e+00  -1.7392079693157665e+00  -1.8141591194683651e+00  -1.8977912967968567e+00  -1.9902539714544536e+00  -2.0916363692955859e+00  </DataArray> 
</PointData> 
</Piece>
</UnstructuredGrid>
</VTKFile>