<?xml version="1.0"?>
<VTKFile type="UnstructuredGrid"  version="0.1"  >
<UnstructuredGrid>
<Piece  NumberOfPoints="65" NumberOfCells="64">
<Points>
<DataArray  type="Float64"  NumberOfComponents="3"  format="ascii">0 0 0  0.0625 0 0  0.125 0 0  0.1875 0 0  0.25 0 0  0.3125 0 0  0.375 0 0  0.4375 0 0  0.5 0 0  0.5625 0 0  0.625 0 0  0.6875 0 0  0.75 0 0  0.8125 0 0  0.875 0 0  0.9375 0 0  1 0 0  1.0625 0 0  1.125 0 0  1.1875 0 0  1.25 0 0  1.3125 0 0  1.375 0 0  1.4375 0 0  1.5 0 0  1.5625 0 0  1.625 0 0  1.6875 0 0  1.75 0 0  1.8125 0 0  1.875 0 0  1.9375 0 0  2 0 0  2.0625 0 0  2.125 0 0  2.1875 0 0  2.25 0 0  2.3125 0 0  2.375 0 0  2.4375 0 0  2.5 0 0  2.5625 0 0  2.625 0 0  2.6875 0 0  2.75 0 0  2.8125 0 0  2.875 0 0  2.9375 0 0  3 0 0  3.0625 0 0  3.125 0 0  3.1875 0 0  3.25 0 0  3.3125 0 0  3.375 0 0  3.4375 0 0  3.5 0 0  3.5625 0 0  3.625 0 0  3.6875 0 0  3.75 0 0  3.8125 0 0  3.875 0 0  3.9375 0 0  4 0 0  </DataArray>
</Points>
<Cells>
<DataArray  type="UInt32"  Name="connectivity"  format="ascii">0 1  1 2  2 3  3 4  4 5  5 6  6 7  7 8  8 9  9 10  10 11  11 12  12 13  13 14  14 15  15 16  16 17  17 18  18 19  19 20  20 21  21 22  22 23  23 24  24 25  25 26  26 27  27 28  28 29  29 30  30 31  31 32  32 33  33 34  34 35  35 36  36 37  37 38  38 39  39 40  40 41  41 42  42 43  43 44  44 45  45 46  46 47  47 48  48 49  49 50  50 51  51 52  52 53  53 54  54 55  55 56  56 57  57 58  58 59  59 60  60 61  61 62  62 63  63 64  </DataArray>
<DataArray  type="UInt32"  Name="offsets"  format="ascii">2 4 6 8 10 12 14 16 18 20 22 24 26 28 30 32 34 36 38 40 42 44 46 48 50 52 54 56 58 60 62 64 66 68 70 72 74 76 78 80 82 84 86 88 90 92 94 96 98 100 102 104 106 108 110 112 114 116 118 120 122 124 126 128 </DataArray>
<DataArray  type="UInt8"  Name="types"  format="ascii">3 3 3 3 3 3 3 3 3 3 3 3 3 3 3 3 3 3 3 3 3 3 3 3 3 3 3 3 3 3 3 3 3 3 3 3 3 3 3 3 3 3 3 3 3 3 3 3 3 3 3 3 3 3 3 3 3 3 3 3 3 3 3 3 </DataArray>
</Cells>
<PointData  Scalars="U"> 
<DataArray  type="Float64"  Name="U"  format="ascii">0.0000000000000000e+00  -3.8560466091750699e-02  -8.0839956541024036e-02  -1.2634605096777005e-01  -1.7459252035698852e-01  -2.2510233784365297e-01  -2.7741051528573757e-01  -3.3106671636332663e-01  -3.8563760427206489e-01  -4.4070889063854685e-01  -4.9588706172346847e-01  -5.5080076792355437e-01  -6.0510187266194571e-01  -6.5846616661315849e-01  -7.1059376252180184e-01  -7.6120919437124834e-01  -8.1006125212438040e-01  -8.5692258954110190e-01  -9.0158914758704178e-01  -9.4387943965389853e-01  -9.8363374723365871e-01  -1.0207132758851238e+00  -1.0549993213861828e+00  -1.0863924949750765e+00  -1.1148120546419771e+00  -1.1401953866169572e+00  -1.1624976775650726e+00  -1.1816918135650307e+00  -1.1977685367015933e+00  -1.2107368839976780e+00  -1.2206249263788760e+00  -1.2274808173157299e+00  -1.2313741516447172e+00  -1.2323976247665722e+00  -1.2306689709434180e+00  -1.2263331468144480e+00  -1.2195647126634017e+00  -1.2105703496486313e+00  -1.1995914365205289e+00  -1.1869065948045621e+00  -1.1728340976529905e+00  -1.1577340253119952e+00  -1.1420100402515108e+00  -1.1261106483536030e+00  -1.1105298100465146e+00  -1.0958067677446928e+00  -1.0825249641274326e+00  -1.0713099401860979e+00  -1.0628261228595177e+00  -1.0577724394081531e+00  -1.0568767290347370e+00  -1.0608889608361578e+00  -1.0705733097685475e+00  -1.0866991873563838e+00  -1.1100313694939496e+00  -1.1413194077586510e+00  -1.1812865509412915e+00  -1.2306184377622975e+00  -1.2899518478911520e+00  -1.3598638146081379e+00  -1.4408614073478441e+00  -1.5333724850764490e+00  -1.6377377017260655e+00  -1.7542040131452967e+00  -1.8829198922948016e+00  </DataArray> 
</PointData> 
</Piece>
</UnstructuredGrid>
</VTKFile>