<?xml version="1.0"?>
<VTKFile type="UnstructuredGrid"  version="0.1"  >
<UnstructuredGrid>
<Piece  NumberOfPoints="65" NumberOfCells="64">
<Points>
<DataArray  type="Float64"  NumberOfComponents="3"  format="ascii">0 0 0  0.0625 0 0  0.125 0 0  0.1875 0 0  0.25 0 0  0.3125 0 0  0.375 0 0  0.4375 0 0  0.5 0 0  0.5625 0 0  0.625 0 0  0.6875 0 0  0.75 0 0  0.8125 0 0  0.875 0 0  0.9375 0 0  1 0 0  1.0625 0 0  1.125 0 0  1.1875 0 0  1.25 0 0  1.3125 0 0  1.375 0 0  1.4375 0 0  1.5 0 0  1.5625 0 0  1.625 0 0  1.6875 0 0  1.75 0 0  1.8125 0 0  1.875 0 0  1.9375 0 0  2 0 0  2.0625 0 0  2.125 0 0  2.1875 0 0  2.25 0 0  2.3125 0 0  2.375 0 0  2.4375 0 0  2.5 0 0  2.5625 0 0  2.625 0 0  2.6875 0 0  2.75 0 0  2.8125 0 0  2.875 0 0  2.9375 0 0  3 0 0  3.0625 0 0  3.125 0 0  3.1875 0 0  3.25 0 0  3.3125 0 0  3.375 0 0  3.4375 0 0  3.5 0 0  3.5625 0 0  3.625 0 0  3.6875 0 0  3.75 0 0  3.8125 0 0  3.875 0 0  3.9375 0 0  4 0 0  </DataArray>
</Points>
<Cells>
<DataArray  type="UInt32"  Name="connectivity"  format="ascii">0 1  1 2  2 3  3 4  4 5  5 6  6 7  7 8  8 9  9 10  10 11  11 12  12 13  13 14  14 15  15 16  16 17  17 18  18 19  19 20  20 21  21 22  22 23  23 24  24 25  25 26  26 27  27 28  28 29  29 30  30 31  31 32  32 33  33 34  34 35  35 36  36 37  37 38  38 39  39 40  40 41  41 42  42 43  43 44  44 45  45 46  46 47  47 48  48 49  49 50  50 51  51 52  52 53  53 54  54 55  55 56  56 57  57 58  58 59  59 60  60 61  61 62  62 63  63 64  </DataArray>
<DataArray  type="UInt32"  Name="offsets"  format="ascii">2 4 6 8 10 12 14 16 18 20 22 24 26 28 30 32 34 36 38 40 42 44 46 48 50 52 54 56 58 60 62 64 66 68 70 72 74 76 78 80 82 84 86 88 90 92 94 96 98 100 102 104 106 108 110 112 114 116 118 120 122 124 126 128 </DataArray>
<DataArray  type="UInt8"  Name="types"  format="ascii">3 3 3 3 3 3 3 3 3 3 3 3 3 3 3 3 3 3 3 3 3 3 3 3 3 3 3 3 3 3 3 3 3 3 3 3 3 3 3 3 3 3 3 3 3 3 3 3 3 3 3 3 3 3 3 3 3 3 3 3 3 3 3 3 </DataArray>
</Cells>
<PointData  Scalars="U"> 
<DataArray  type="Float64"  Name="U"  format="ascii">0.0000000000000000e+00  -5.7021173360668261e-02  -1.1667982265079989e-01  -1.7857949198544662e-01  -2.4232712717213628e-01  -3.0753477978561827e-01  -3.7382126030075280e-01  -4.4081372526909113e-01  -5.0814918533495990e-01  -5.7547592304616357e-01  -6.4245481185745668e-01  -7.0876053037776920e-01  -7.7408266869431674e-01  -8.3812672643345565e-01  -9.0061500500271374e-01  -9.6128739911439898e-01  -1.0199020951346034e+00  -1.0762361859528933e+00  -1.1300862138545884e+00  -1.1812686542345689e+00  -1.2296203538640531e+00  -1.2749989377658661e+00  -1.3172831985378510e+00  -1.3563734811699091e+00  -1.3921920750236949e+00  -1.4246836226960029e+00  -1.4538155529937433e+00  -1.4795785422524108e+00  -1.5019870047895256e+00  -1.5210796094743617e+00  -1.5369198153058234e+00  -1.5495964146272658e+00  -1.5592240682900518e+00  -1.5659438128386598e+00  -1.5699235157711686e+00  -1.5713582512789652e+00  -1.5704705657408484e+00  -1.5675105997906871e+00  -1.5627560321398164e+00  -1.5565118096493067e+00  -1.5491096285297969e+00  -1.5409071330910598e+00  -1.5322868012341222e+00  -1.5236544899051851e+00  -1.5154376190030248e+00  -1.5080829786971752e+00  -1.5020541526747957e+00  -1.4978285583452746e+00  -1.4958941143041218e+00  -1.4967455551603430e+00  -1.5008804238967195e+00  -1.5087947819633829e+00  -1.5209786869847906e+00  -1.5379114969625227e+00  -1.5600570678575798e+00  -1.5878589181279066e+00  -1.6217354388997549e+00  -1.6620752317259677e+00  -1.7092326571432650e+00  -1.7635236763588362e+00  -1.8252220653182074e+00  -1.8945560751498569e+00  -1.9717056056419708e+00  -2.0567999491523188e+00  -2.1499161514229672e+00  </DataArray> 
</PointData> 
</Piece>
</UnstructuredGrid>
</VTKFile>