<?xml version="1.0"?>
<VTKFile type="UnstructuredGrid"  version="0.1"  >
<UnstructuredGrid>
<Piece  NumberOfPoints="65" NumberOfCells="64">
<Points>
<DataArray  type="Float64"  NumberOfComponents="3"  format="ascii">0 0 0  0.0625 0 0  0.125 0 0  0.1875 0 0  0.25 0 0  0.3125 0 0  0.375 0 0  0.4375 0 0  0.5 0 0  0.5625 0 0  0.625 0 0  0.6875 0 0  0.75 0 0  0.8125 0 0  0.875 0 0  0.9375 0 0  1 0 0  1.0625 0 0  1.125 0 0  1.1875 0 0  1.25 0 0  1.3125 0 0  1.375 0 0  1.4375 0 0  1.5 0 0  1.5625 0 0  1.625 0 0  1.6875 0 0  1.75 0 0  1.8125 0 0  1.875 0 0  1.9375 0 0  2 0 0  2.0625 0 0  2.125 0 0  2.1875 0 0  2.25 0 0  2.3125 0 0  2.375 0 0  2.4375 0 0  2.5 0 0  2.5625 0 0  2.625 0 0  2.6875 0 0  2.75 0 0  2.8125 0 0  2.875 0 0  2.9375 0 0  3 0 0  3.0625 0 0  3.125 0 0  3.1875 0 0  3.25 0 0  3.3125 0 0  3.375 0 0  3.4375 0 0  3.5 0 0  3.5625 0 0  3.625 0 0  3.6875 0 0  3.75 0 0  3.8125 0 0  3.875 0 0  3.9375 0 0  4 0 0  </DataArray>
</Points>
<Cells>
<DataArray  type="UInt32"  Name="connectivity"  format="ascii">0 1  1 2  2 3  3 4  4 5  5 6  6 7  7 8  8 9  9 10  10 11  11 12  12 13  13 14  14 15  15 16  16 17  17 18  18 19  19 20  20 21  21 22  22 23  23 24  24 25  25 26  26 27  27 28  28 29  29 30  30 31  31 32  32 33  33 34  34 35  35 36  36 37  37 38  38 39  39 40  40 41  41 42  42 43  43 44  44 45  45 46  46 47  47 48  48 49  49 50  50 51  51 52  52 53  53 54  54 55  55 56  56 57  57 58  58 59  59 60  60 61  61 62  62 63  63 64  </DataArray>
<DataArray  type="UInt32"  Name="offsets"  format="ascii">2 4 6 8 10 12 14 16 18 20 22 24 26 28 30 32 34 36 38 40 42 44 46 48 50 52 54 56 58 60 62 64 66 68 70 72 74 76 78 80 82 84 86 88 90 92 94 96 98 100 102 104 106 108 110 112 114 116 118 120 122 124 126 128 </DataArray>
<DataArray  type="UInt8"  Name="types"  format="ascii">3 3 3 3 3 3 3 3 3 3 3 3 3 3 3 3 3 3 3 3 3 3 3 3 3 3 3 3 3 3 3 3 3 3 3 3 3 3 3 3 3 3 3 3 3 3 3 3 3 3 3 3 3 3 3 3 3 3 3 3 3 3 3 3 </DataArray>
</Cells>
<PointData  Scalars="U"> 
<DataArray  type="Float64"  Name="U"  format="ascii">0.0000000000000000e+00  -7.2789210572936205e-02  -1.4704645581304365e-01  -2.2247023247022757e-01  -2.9876130534816275e-01  -3.7562385843498081e-01  -4.5276663391905742e-01  -5.2990405510909733e-01  -6.0675732943901839e-01  -6.8305552792694002e-01  -7.5853663766547907e-01  -8.3294858413816386e-01  -9.0605022037402705e-01  -9.7761228015903523e-01  -1.0474182927087596e+00  -1.1152654563619386e+00  -1.1809654689706199e+00  -1.2443453127320174e+00  -1.3052479912244122e+00  -1.3635332163706659e+00  -1.4190780429568970e+00  -1.4717774481816195e+00  -1.5215448535060585e+00  -1.5683125858257825e+00  -1.6120322746964517e+00  -1.6526751820340515e+00  -1.6902324603865175e+00  -1.7247153355553158e+00  -1.7561552090501125e+00  -1.7846036756062504e+00  -1.8101324508030594e+00  -1.8328332037110355e+00  -1.8528172894869437e+00  -1.8702153769462821e+00  -1.8851769663886531e+00  -1.8978697933474373e+00  -1.9084791144916651e+00  -1.9172068726323197e+00  -1.9242707386806686e+00  -1.9299030294710435e+00  -1.9343495015885639e+00  -1.9378680227222551e+00  -1.9407271235795003e+00  -1.9432044350274877e+00  -1.9455850168453457e+00  -1.9481595862467438e+00  -1.9512226561331081e+00  -1.9550705948252958e+00  -1.9599996207577506e+00  -1.9663037472635347e+00  -1.9742726940908912e+00  -1.9841897836325877e+00  -1.9963298409806898e+00  -2.0109571178070857e+00  -2.0283232606835906e+00  -2.0486653447693173e+00  -2.0722039937877463e+00  -2.0991416068784892e+00  -2.1296607122333095e+00  -2.1639224664142533e+00  -2.2020653169129329e+00  -2.2442038438611229e+00  -2.2904277948680480e+00  -2.3408013247702191e+00  -2.3953624496727124e+00  </DataArray> 
</PointData> 
</Piece>
</UnstructuredGrid>
</VTKFile>