<?xml version="1.0"?>
<VTKFile type="UnstructuredGrid"  version="0.1"  >
<UnstructuredGrid>
<Piece  NumberOfPoints="65" NumberOfCells="64">
<Points>
<DataArray  type="Float64"  NumberOfComponents="3"  format="ascii">0 0 0  0.0625 0 0  0.125 0 0  0.1875 0 0  0.25 0 0  0.3125 0 0  0.375 0 0  0.4375 0 0  0.5 0 0  0.5625 0 0  0.625 0 0  0.6875 0 0  0.75 0 0  0.8125 0 0  0.875 0 0  0.9375 0 0  1 0 0  1.0625 0 0  1.125 0 0  1.1875 0 0  1.25 0 0  1.3125 0 0  1.375 0 0  1.4375 0 0  1.5 0 0  1.5625 0 0  1.625 0 0  1.6875 0 0  1.75 0 0  1.8125 0 0  1.875 0 0  1.9375 0 0  2 0 0  2.0625 0 0  2.125 0 0  2.1875 0 0  2.25 0 0  2.3125 0 0  2.375 0 0  2.4375 0 0  2.5 0 0  2.5625 0 0  2.625 0 0  2.6875 0 0  2.75 0 0  2.8125 0 0  2.875 0 0  2.9375 0 0  3 0 0  3.0625 0 0  3.125 0 0  3.1875 0 0  3.25 0 0  3.3125 0 0  3.375 0 0  3.4375 0 0  3.5 0 0  3.5625 0 0  3.625 0 0  3.6875 0 0  3.75 0 0  3.8125 0 0  3.875 0 0  3.9375 0 0  4 0 0  </DataArray>
</Points>
<Cells>
<DataArray  type="UInt32"  Name="connectivity"  format="ascii">0 1  1 2  2 3  3 4  4 5  5 6  6 7  7 8  8 9  9 10  10 11  11 12  12 13  13 14  14 15  15 16  16 17  17 18  18 19  19 20  20 21  21 22  22 23  23 24  24 25  25 26  26 27  27 28  28 29  29 30  30 31  31 32  32 33  33 34  34 35  35 36  36 37  37 38  38 39  39 40  40 41  41 42  42 43  43 44  44 45  45 46  46 47  47 48  48 49  49 50  50 51  51 52  52 53  53 54  54 55  55 56  56 57  57 58  58 59  59 60  60 61  61 62  62 63  63 64  </DataArray>
<DataArray  type="UInt32"  Name="offsets"  format="ascii">2 4 6 8 10 12 14 16 18 20 22 24 26 28 30 32 34 36 38 40 42 44 46 48 50 52 54 56 58 60 62 64 66 68 70 72 74 76 78 80 82 84 86 88 90 92 94 96 98 100 102 104 106 108 110 112 114 116 118 120 122 124 126 128 </DataArray>
<DataArray  type="UInt8"  Name="types"  format="ascii">3 3 3 3 3 3 3 3 3 3 3 3 3 3 3 3 3 3 3 3 3 3 3 3 3 3 3 3 3 3 3 3 3 3 3 3 3 3 3 3 3 3 3 3 3 3 3 3 3 3 3 3 3 3 3 3 3 3 3 3 3 3 3 3 </DataArray>
</Cells>
<PointData  Scalars="U"> 
<DataArray  type="Float64"  Name="U"  format="ascii">0.0000000000000000e+00  -2.0239085228818801e-02  -4.5175129883175139e-02  -7.4183869171921407e-02  -1.0665381609265434e-01  -1.4199222557356547e-01  -1.7963048049825875e-01  -2.1902875432299262e-01  -2.5967984139590705e-01  -3.0111208635626246e-01  -3.4289138539372194e-01  -3.8462227203773935e-01  -4.2594813618619121e-01  -4.6655065541010204e-01  -5.0614854091858164e-01  -5.4449571630419125e-01  -5.8137905530507972e-01  -6.1661580585856590e-01  -6.5005082266336822e-01  -6.8155372060139341e-01  -7.1101604814564789e-01  -7.3834856477988298e-01  -7.6347869087696396e-01  -7.8634818365635739e-01  -8.0691107976954246e-01  -8.2513193449164624e-01  -8.4098437990997621e-01  -8.5445002012149218e-01  -8.6551768026922571e-01  -8.7418302803036774e-01  -8.8044859048010127e-01  -8.8432419546352370e-01  -8.8582787388707107e-01  -8.8498726666704708e-01  -8.8184158622259634e-01  -8.7644418595710216e-01  -8.6886579055157653e-01  -8.5919843340029922e-01  -8.4756013343996883e-01  -8.3410032037053228e-01  -8.1900598356452481e-01  -8.0250847508550449e-01  -7.8489084126765751e-01  -7.6649549140577911e-01  -7.4773193873530808e-01  -7.2908427198323067e-01  -7.1111794078662849e-01  -6.9448537202620286e-01  -6.7992988446720048e-01  -6.6828734438359760e-01  -6.6048501312458308e-01  -6.5753708571313774e-01  -6.6053651216438691e-01  -6.7064283168372707e-01  -6.8906593163095098e-01  -7.1704586096485812e-01  -7.5582907006815914e-01  -8.0664169952727416e-01  -8.7066078064953156e-01  -9.4898441974812942e-01  -1.0426021964268533e+00  -1.1523670957084025e+00  -1.2789703019456009e+00  -1.4229201024642912e+00  -1.5845259817508159e+00  </DataArray> 
</PointData> 
</Piece>
</UnstructuredGrid>
</VTKFile>