<?xml version="1.0"?>
<VTKFile type="UnstructuredGrid"  version="0.1"  >
<UnstructuredGrid>
<Piece  NumberOfPoints="65" NumberOfCells="64">
<Points>
<DataArray  type="Float64"  NumberOfComponents="3"  format="ascii">0 0 0  0.0625 0 0  0.125 0 0  0.1875 0 0  0.25 0 0  0.3125 0 0  0.375 0 0  0.4375 0 0  0.5 0 0  0.5625 0 0  0.625 0 0  0.6875 0 0  0.75 0 0  0.8125 0 0  0.875 0 0  0.9375 0 0  1 0 0  1.0625 0 0  1.125 0 0  1.1875 0 0  1.25 0 0  1.3125 0 0  1.375 0 0  1.4375 0 0  1.5 0 0  1.5625 0 0  1.625 0 0  1.6875 0 0  1.75 0 0  1.8125 0 0  1.875 0 0  1.9375 0 0  2 0 0  2.0625 0 0  2.125 0 0  2.1875 0 0  2.25 0 0  2.3125 0 0  2.375 0 0  2.4375 0 0  2.5 0 0  2.5625 0 0  2.625 0 0  2.6875 0 0  2.75 0 0  2.8125 0 0  2.875 0 0  2.9375 0 0  3 0 0  3.0625 0 0  3.125 0 0  3.1875 0 0  3.25 0 0  3.3125 0 0  3.375 0 0  3.4375 0 0  3.5 0 0  3.5625 0 0  3.625 0 0  3.6875 0 0  3.75 0 0  3.8125 0 0  3.875 0 0  3.9375 0 0  4 0 0  </DataArray>
</Points>
<Cells>
<DataArray  type="UInt32"  Name="connectivity"  format="ascii">0 1  1 2  2 3  3 4  4 5  5 6  6 7  7 8  8 9  9 10  10 11  11 12  12 13  13 14  14 15  15 16  16 17  17 18  18 19  19 20  20 21  21 22  22 23  23 24  24 25  25 26  26 27  27 28  28 29  29 30  30 31  31 32  32 33  33 34  34 35  35 36  36 37  37 38  38 39  39 40  40 41  41 42  42 43  43 44  44 45  45 46  46 47  47 48  48 49  49 50  50 51  51 52  52 53  53 54  54 55  55 56  56 57  57 58  58 59  59 60  60 61  61 62  62 63  63 64  </DataArray>
<DataArray  type="UInt32"  Name="offsets"  format="ascii">2 4 6 8 10 12 14 16 18 20 22 24 26 28 30 32 34 36 38 40 42 44 46 48 50 52 54 56 58 60 62 64 66 68 70 72 74 76 78 80 82 84 86 88 90 92 94 96 98 100 102 104 106 108 110 112 114 116 118 120 122 124 126 128 </DataArray>
<DataArray  type="UInt8"  Name="types"  format="ascii">3 3 3 3 3 3 3 3 3 3 3 3 3 3 3 3 3 3 3 3 3 3 3 3 3 3 3 3 3 3 3 3 3 3 3 3 3 3 3 3 3 3 3 3 3 3 3 3 3 3 3 3 3 3 3 3 3 3 3 3 3 3 3 3 </DataArray>
</Cells>
<PointData  Scalars="U"> 
<DataArray  type="Float64"  Name="U"  format="ascii">0.0000000000000000e+00  1.4021989604031268e-01  2.7598836411388011e-01  4.0730540455418074e-01  5.3417101767351316e-01  6.5658520376355411e-01  7.7454796309597684e-01  8.8805929592311794e-01  9.9711920247868613e-01  1.1017276829785017e+00  1.2018847376212602e+00  1.2975903665893069e+00  1.3888445700494176e+00  1.4756473481535770e+00  1.5579987010397414e+00  1.6358986288325872e+00  1.7093471316442270e+00  1.7783442095748951e+00  1.8428898627135917e+00  1.9029840911386793e+00  1.9586268949184265e+00  2.0098182741114949e+00  2.0565582287673627e+00  2.0988467589266775e+00  2.1366838646215442e+00  2.1700695458757320e+00  2.1990038027048016e+00  2.2234866351161582e+00  2.2435180431090136e+00  2.2590980266742693e+00  2.2702265857943051e+00  2.2769037204426916e+00  2.2791294305838048e+00  2.2769037161723635e+00  2.2702265771528758e+00  2.2590980134590102e+00  2.2435180250128814e+00  2.2234866117242698e+00  2.1990037734897627e+00  2.1700695101918495e+00  2.1366838216979414e+00  2.0988467078593684e+00  2.0565581685103265e+00  2.0098182034668088e+00  1.9586268125255253e+00  1.9029839954628254e+00  1.8428897520336414e+00  1.7783440819704652e+00  1.7093469849823795e+00  1.6358984607541556e+00  1.5579985089454429e+00  1.4756471291900652e+00  1.3888443210954429e+00  1.2975900842421577e+00  1.2018844181836872e+00  1.1017273224463155e+00  9.9711879652924562e-01  8.8805883990492485e-01  7.7454745201959940e-01  6.5658463229411101e-01  5.3417038012494489e-01  4.0730469488553639e-01  2.7598757592784390e-01  1.4021902258419061e-01  -9.6583062641603787e-07  </DataArray> 
</PointData> 
</Piece>
</UnstructuredGrid>
</VTKFile>