<?xml version="1.0"?>
<VTKFile type="UnstructuredGrid"  version="0.1"  >
<UnstructuredGrid>
<Piece  NumberOfPoints="65" NumberOfCells="64">
<Points>
<DataArray  type="Float64"  NumberOfComponents="3"  format="ascii">0 0 0  0.0625 0 0  0.125 0 0  0.1875 0 0  0.25 0 0  0.3125 0 0  0.375 0 0  0.4375 0 0  0.5 0 0  0.5625 0 0  0.625 0 0  0.6875 0 0  0.75 0 0  0.8125 0 0  0.875 0 0  0.9375 0 0  1 0 0  1.0625 0 0  1.125 0 0  1.1875 0 0  1.25 0 0  1.3125 0 0  1.375 0 0  1.4375 0 0  1.5 0 0  1.5625 0 0  1.625 0 0  1.6875 0 0  1.75 0 0  1.8125 0 0  1.875 0 0  1.9375 0 0  2 0 0  2.0625 0 0  2.125 0 0  2.1875 0 0  2.25 0 0  2.3125 0 0  2.375 0 0  2.4375 0 0  2.5 0 0  2.5625 0 0  2.625 0 0  2.6875 0 0  2.75 0 0  2.8125 0 0  2.875 0 0  2.9375 0 0  3 0 0  3.0625 0 0  3.125 0 0  3.1875 0 0  3.25 0 0  3.3125 0 0  3.375 0 0  3.4375 0 0  3.5 0 0  3.5625 0 0  3.625 0 0  3.6875 0 0  3.75 0 0  3.8125 0 0  3.875 0 0  3.9375 0 0  4 0 0  </DataArray>
</Points>
<Cells>
<DataArray  type="UInt32"  Name="connectivity"  format="ascii">0 1  1 2  2 3  3 4  4 5  5 6  6 7  7 8  8 9  9 10  10 11  11 12  12 13  13 14  14 15  15 16  16 17  17 18  18 19  19 20  20 21  21 22  22 23  23 24  24 25  25 26  26 27  27 28  28 29  29 30  30 31  31 32  32 33  33 34  34 35  35 36  36 37  37 38  38 39  39 40  40 41  41 42  42 43  43 44  44 45  45 46  46 47  47 48  48 49  49 50  50 51  51 52  52 53  53 54  54 55  55 56  56 57  57 58  58 59  59 60  60 61  61 62  62 63  63 64  </DataArray>
<DataArray  type="UInt32"  Name="offsets"  format="ascii">2 4 6 8 10 12 14 16 18 20 22 24 26 28 30 32 34 36 38 40 42 44 46 48 50 52 54 56 58 60 62 64 66 68 70 72 74 76 78 80 82 84 86 88 90 92 94 96 98 100 102 104 106 108 110 112 114 116 118 120 122 124 126 128 </DataArray>
<DataArray  type="UInt8"  Name="types"  format="ascii">3 3 3 3 3 3 3 3 3 3 3 3 3 3 3 3 3 3 3 3 3 3 3 3 3 3 3 3 3 3 3 3 3 3 3 3 3 3 3 3 3 3 3 3 3 3 3 3 3 3 3 3 3 3 3 3 3 3 3 3 3 3 3 3 </DataArray>
</Cells>
<PointData  Scalars="U"> 
<DataArray  type="Float64"  Name="U"  format="ascii">0.0000000000000000e+00  1.6457531875603418e-01  3.2392602203212162e-01  4.7805211013288834e-01  6.2695358333885276e-01  7.7063044190744745e-01  9.0908268607409959e-01  1.0423103160533567e+00  1.1703133320400443e+00  1.2930917342104418e+00  1.4106455227234649e+00  1.5229746977218404e+00  1.6300792593332671e+00  1.7319592076715473e+00  1.8286145428376850e+00  1.9200452649209390e+00  2.0062513739998256e+00  2.0872328701430600e+00  2.1629897534104452e+00  2.2335220238536788e+00  2.2988296815171023e+00  2.3589127264383629e+00  2.4137711586490060e+00  2.4634049781749825e+00  2.5078141850370734e+00  2.5469987792512265e+00  2.5809587608288078e+00  2.6096941297767589e+00  2.6332048860976629e+00  2.6514910297897085e+00  2.6645525608465661e+00  2.6723894792571441e+00  2.6750017850052568e+00  2.6723894780691682e+00  2.6645525584210361e+00  2.6514910260262301e+00  2.6332048808425421e+00  2.6096941228192674e+00  2.5809587518961785e+00  2.5469987680023687e+00  2.5078141710549784e+00  2.4634049609578272e+00  2.4137711375999107e+00  2.3589127008538235e+00  2.2988296505740768e+00  2.2335219865953548e+00  2.1629897087307048e+00  2.0872328167696947e+00  2.0062513104765531e+00  1.9200451895883179e+00  1.8286144538130289e+00  1.7319591028279826e+00  1.6300791362780920e+00  1.5229745537743851e+00  1.4106453548926701e+00  1.2930915391724145e+00  1.1703131061158645e+00  1.0423100551874480e+00  9.0908238581348932e-01  7.7063009738227006e-01  6.2695318924446308e-01  4.7805166071396826e-01  3.2392551106916273e-01  1.6457473955458815e-01  -6.5461691997346449e-07  </DataArray> 
</PointData> 
</Piece>
</UnstructuredGrid>
</VTKFile>