<?xml version="1.0"?>
<VTKFile type="UnstructuredGrid"  version="0.1"  >
<UnstructuredGrid>
<Piece  NumberOfPoints="65" NumberOfCells="64">
<Points>
<DataArray  type="Float64"  NumberOfComponents="3"  format="ascii">0 0 0  0.0625 0 0  0.125 0 0  0.1875 0 0  0.25 0 0  0.3125 0 0  0.375 0 0  0.4375 0 0  0.5 0 0  0.5625 0 0  0.625 0 0  0.6875 0 0  0.75 0 0  0.8125 0 0  0.875 0 0  0.9375 0 0  1 0 0  1.0625 0 0  1.125 0 0  1.1875 0 0  1.25 0 0  1.3125 0 0  1.375 0 0  1.4375 0 0  1.5 0 0  1.5625 0 0  1.625 0 0  1.6875 0 0  1.75 0 0  1.8125 0 0  1.875 0 0  1.9375 0 0  2 0 0  2.0625 0 0  2.125 0 0  2.1875 0 0  2.25 0 0  2.3125 0 0  2.375 0 0  2.4375 0 0  2.5 0 0  2.5625 0 0  2.625 0 0  2.6875 0 0  2.75 0 0  2.8125 0 0  2.875 0 0  2.9375 0 0  3 0 0  3.0625 0 0  3.125 0 0  3.1875 0 0  3.25 0 0  3.3125 0 0  3.375 0 0  3.4375 0 0  3.5 0 0  3.5625 0 0  3.625 0 0  3.6875 0 0  3.75 0 0  3.8125 0 0  3.875 0 0  3.9375 0 0  4 0 0  </DataArray>
</Points>
<Cells>
<DataArray  type="UInt32"  Name="connectivity"  format="ascii">0 1  1 2  2 3  3 4  4 5  5 6  6 7  7 8  8 9  9 10  10 11  11 12  12 13  13 14  14 15  15 16  16 17  17 18  18 19  19 20  20 21  21 22  22 23  23 24  24 25  25 26  26 27  27 28  28 29  29 30  30 31  31 32  32 33  33 34  34 35  35 36  36 37  37 38  38 39  39 40  40 41  41 42  42 43  43 44  44 45  45 46  46 47  47 48  48 49  49 50  50 51  51 52  52 53  53 54  54 55  55 56  56 57  57 58  58 59  59 60  60 61  61 62  62 63  63 64  </DataArray>
<DataArray  type="UInt32"  Name="offsets"  format="ascii">2 4 6 8 10 12 14 16 18 20 22 24 26 28 30 32 34 36 38 40 42 44 46 48 50 52 54 56 58 60 62 64 66 68 70 72 74 76 78 80 82 84 86 88 90 92 94 96 98 100 102 104 106 108 110 112 114 116 118 120 122 124 126 128 </DataArray>
<DataArray  type="UInt8"  Name="types"  format="ascii">3 3 3 3 3 3 3 3 3 3 3 3 3 3 3 3 3 3 3 3 3 3 3 3 3 3 3 3 3 3 3 3 3 3 3 3 3 3 3 3 3 3 3 3 3 3 3 3 3 3 3 3 3 3 3 3 3 3 3 3 3 3 3 3 </DataArray>
</Cells>
<PointData  Scalars="ud"> 
<DataArray  type="Float64"  Name="ud"  format="ascii">0.0000000000000000e+00  1.0379640237119570e-01  2.0429768085759151e-01  3.0150383545918746e-01  3.9541486617598359e-01  4.8603077300797981e-01  5.7335155595517617e-01  6.5737721501757274e-01  7.3810775019516939e-01  8.1554316148796613e-01  8.8968344889596307e-01  9.6052861241916010e-01  1.0280786520575573e+00  1.0923335678111548e+00  1.1532933596799522e+00  1.2109580276639498e+00  1.2653275717631476e+00  1.3164019919775454e+00  1.3641812883071434e+00  1.4086654607519415e+00  1.4498545093119397e+00  1.4877484339871383e+00  1.5223472347775369e+00  1.5536509116831354e+00  1.5816594647039344e+00  1.6063728938399333e+00  1.6277911990911325e+00  1.6459143804575316e+00  1.6607424379391311e+00  1.6722753715359306e+00  1.6805131812479301e+00  1.6854558670751301e+00  1.6871034290175300e+00  1.6854558670751301e+00  1.6805131812479301e+00  1.6722753715359306e+00  1.6607424379391311e+00  1.6459143804575316e+00  1.6277911990911325e+00  1.6063728938399333e+00  1.5816594647039344e+00  1.5536509116831354e+00  1.5223472347775369e+00  1.4877484339871383e+00  1.4498545093119397e+00  1.4086654607519415e+00  1.3641812883071434e+00  1.3164019919775454e+00  1.2653275717631476e+00  1.2109580276639498e+00  1.1532933596799522e+00  1.0923335678111548e+00  1.0280786520575573e+00  9.6052861241916010e-01  8.8968344889596307e-01  8.1554316148796613e-01  7.3810775019516939e-01  6.5737721501757274e-01  5.7335155595517617e-01  4.8603077300797981e-01  3.9541486617598359e-01  3.0150383545918746e-01  2.0429768085759151e-01  1.0379640237119570e-01  0.0000000000000000e+00  </DataArray> 
</PointData> 
</Piece>
</UnstructuredGrid>
</VTKFile>