<?xml version="1.0"?>
<VTKFile type="UnstructuredGrid"  version="0.1"  >
<UnstructuredGrid>
<Piece  NumberOfPoints="65" NumberOfCells="64">
<Points>
<DataArray  type="Float64"  NumberOfComponents="3"  format="ascii">0 0 0  0.0625 0 0  0.125 0 0  0.1875 0 0  0.25 0 0  0.3125 0 0  0.375 0 0  0.4375 0 0  0.5 0 0  0.5625 0 0  0.625 0 0  0.6875 0 0  0.75 0 0  0.8125 0 0  0.875 0 0  0.9375 0 0  1 0 0  1.0625 0 0  1.125 0 0  1.1875 0 0  1.25 0 0  1.3125 0 0  1.375 0 0  1.4375 0 0  1.5 0 0  1.5625 0 0  1.625 0 0  1.6875 0 0  1.75 0 0  1.8125 0 0  1.875 0 0  1.9375 0 0  2 0 0  2.0625 0 0  2.125 0 0  2.1875 0 0  2.25 0 0  2.3125 0 0  2.375 0 0  2.4375 0 0  2.5 0 0  2.5625 0 0  2.625 0 0  2.6875 0 0  2.75 0 0  2.8125 0 0  2.875 0 0  2.9375 0 0  3 0 0  3.0625 0 0  3.125 0 0  3.1875 0 0  3.25 0 0  3.3125 0 0  3.375 0 0  3.4375 0 0  3.5 0 0  3.5625 0 0  3.625 0 0  3.6875 0 0  3.75 0 0  3.8125 0 0  3.875 0 0  3.9375 0 0  4 0 0  </DataArray>
</Points>
<Cells>
<DataArray  type="UInt32"  Name="connectivity"  format="ascii">0 1  1 2  2 3  3 4  4 5  5 6  6 7  7 8  8 9  9 10  10 11  11 12  12 13  13 14  14 15  15 16  16 17  17 18  18 19  19 20  20 21  21 22  22 23  23 24  24 25  25 26  26 27  27 28  28 29  29 30  30 31  31 32  32 33  33 34  34 35  35 36  36 37  37 38  38 39  39 40  40 41  41 42  42 43  43 44  44 45  45 46  46 47  47 48  48 49  49 50  50 51  51 52  52 53  53 54  54 55  55 56  56 57  57 58  58 59  59 60  60 61  61 62  62 63  63 64  </DataArray>
<DataArray  type="UInt32"  Name="offsets"  format="ascii">2 4 6 8 10 12 14 16 18 20 22 24 26 28 30 32 34 36 38 40 42 44 46 48 50 52 54 56 58 60 62 64 66 68 70 72 74 76 78 80 82 84 86 88 90 92 94 96 98 100 102 104 106 108 110 112 114 116 118 120 122 124 126 128 </DataArray>
<DataArray  type="UInt8"  Name="types"  format="ascii">3 3 3 3 3 3 3 3 3 3 3 3 3 3 3 3 3 3 3 3 3 3 3 3 3 3 3 3 3 3 3 3 3 3 3 3 3 3 3 3 3 3 3 3 3 3 3 3 3 3 3 3 3 3 3 3 3 3 3 3 3 3 3 3 </DataArray>
</Cells>
<PointData  Scalars="ud"> 
<DataArray  type="Float64"  Name="ud"  format="ascii">0.0000000000000000e+00  1.7864490433594421e-01  3.5161854186757274e-01  5.1892091259488560e-01  6.8055201651788266e-01  8.3651185363656411e-01  9.8680042395092993e-01  1.1314177274609800e+00  1.2703637641667143e+00  1.4036385340681330e+00  1.5312420371652360e+00  1.6531742734580233e+00  1.7694352429464950e+00  1.8800249456306508e+00  1.9849433815104911e+00  2.0841905505860159e+00  2.1777664528572247e+00  2.2656710883241176e+00  2.3479044569866954e+00  2.4244665588449572e+00  2.4953573938989031e+00  2.5605769621485335e+00  2.6201252635938483e+00  2.6740022982348473e+00  2.7222080660715307e+00  2.7647425671038985e+00  2.8016058013319505e+00  2.8327977687556865e+00  2.8583184693751074e+00  2.8781679031902123e+00  2.8923460702010013e+00  2.9008529704074748e+00  2.9036886038096328e+00  2.9008529704074748e+00  2.8923460702010013e+00  2.8781679031902123e+00  2.8583184693751074e+00  2.8327977687556865e+00  2.8016058013319505e+00  2.7647425671038985e+00  2.7222080660715307e+00  2.6740022982348473e+00  2.6201252635938483e+00  2.5605769621485335e+00  2.4953573938989031e+00  2.4244665588449572e+00  2.3479044569866954e+00  2.2656710883241176e+00  2.1777664528572247e+00  2.0841905505860159e+00  1.9849433815104911e+00  1.8800249456306508e+00  1.7694352429464950e+00  1.6531742734580233e+00  1.5312420371652360e+00  1.4036385340681330e+00  1.2703637641667143e+00  1.1314177274609800e+00  9.8680042395092993e-01  8.3651185363656411e-01  6.8055201651788266e-01  5.1892091259488560e-01  3.5161854186757274e-01  1.7864490433594421e-01  0.0000000000000000e+00  </DataArray> 
</PointData> 
</Piece>
</UnstructuredGrid>
</VTKFile>