<?xml version="1.0"?>
<VTKFile type="UnstructuredGrid"  version="0.1"  >
<UnstructuredGrid>
<Piece  NumberOfPoints="65" NumberOfCells="64">
<Points>
<DataArray  type="Float64"  NumberOfComponents="3"  format="ascii">0 0 0  0.0625 0 0  0.125 0 0  0.1875 0 0  0.25 0 0  0.3125 0 0  0.375 0 0  0.4375 0 0  0.5 0 0  0.5625 0 0  0.625 0 0  0.6875 0 0  0.75 0 0  0.8125 0 0  0.875 0 0  0.9375 0 0  1 0 0  1.0625 0 0  1.125 0 0  1.1875 0 0  1.25 0 0  1.3125 0 0  1.375 0 0  1.4375 0 0  1.5 0 0  1.5625 0 0  1.625 0 0  1.6875 0 0  1.75 0 0  1.8125 0 0  1.875 0 0  1.9375 0 0  2 0 0  2.0625 0 0  2.125 0 0  2.1875 0 0  2.25 0 0  2.3125 0 0  2.375 0 0  2.4375 0 0  2.5 0 0  2.5625 0 0  2.625 0 0  2.6875 0 0  2.75 0 0  2.8125 0 0  2.875 0 0  2.9375 0 0  3 0 0  3.0625 0 0  3.125 0 0  3.1875 0 0  3.25 0 0  3.3125 0 0  3.375 0 0  3.4375 0 0  3.5 0 0  3.5625 0 0  3.625 0 0  3.6875 0 0  3.75 0 0  3.8125 0 0  3.875 0 0  3.9375 0 0  4 0 0  </DataArray>
</Points>
<Cells>
<DataArray  type="UInt32"  Name="connectivity"  format="ascii">0 1  1 2  2 3  3 4  4 5  5 6  6 7  7 8  8 9  9 10  10 11  11 12  12 13  13 14  14 15  15 16  16 17  17 18  18 19  19 20  20 21  21 22  22 23  23 24  24 25  25 26  26 27  27 28  28 29  29 30  30 31  31 32  32 33  33 34  34 35  35 36  36 37  37 38  38 39  39 40  40 41  41 42  42 43  43 44  44 45  45 46  46 47  47 48  48 49  49 50  50 51  51 52  52 53  53 54  54 55  55 56  56 57  57 58  58 59  59 60  60 61  61 62  62 63  63 64  </DataArray>
<DataArray  type="UInt32"  Name="offsets"  format="ascii">2 4 6 8 10 12 14 16 18 20 22 24 26 28 30 32 34 36 38 40 42 44 46 48 50 52 54 56 58 60 62 64 66 68 70 72 74 76 78 80 82 84 86 88 90 92 94 96 98 100 102 104 106 108 110 112 114 116 118 120 122 124 126 128 </DataArray>
<DataArray  type="UInt8"  Name="types"  format="ascii">3 3 3 3 3 3 3 3 3 3 3 3 3 3 3 3 3 3 3 3 3 3 3 3 3 3 3 3 3 3 3 3 3 3 3 3 3 3 3 3 3 3 3 3 3 3 3 3 3 3 3 3 3 3 3 3 3 3 3 3 3 3 3 3 </DataArray>
</Cells>
<PointData  Scalars="U"> 
<DataArray  type="Float64"  Name="U"  format="ascii">0.0000000000000000e+00  1.1311079599268724e-01  2.2263076992009390e-01  3.2855992213091140e-01  4.3089825295613227e-01  5.2964576270919639e-01  6.2480245168619020e-01  7.1636832016609042e-01  8.0434336841104692e-01  8.8872759666669976e-01  9.6952100516252104e-01  1.0467235941121771e+00  1.1203353637139049e+00  1.1903563141508955e+00  1.2567864455916782e+00  1.3196257581905011e+00  1.3788742520876993e+00  1.4345319274100496e+00  1.4865987842711030e+00  1.5350748227714903e+00  1.5799600429991980e+00  1.6212544450298121e+00  1.6589580289267174e+00  1.6930707947412635e+00  1.7235927425128807e+00  1.7505238722691501e+00  1.7738641840258285e+00  1.7936136777868190e+00  1.8097723535440964e+00  1.8223402112775811e+00  1.8313172509549609e+00  1.8367034725314695e+00  1.8384988759496139e+00  1.8367034611388635e+00  1.8313172280152952e+00  1.8223401764812028e+00  1.8097723064246791e+00  1.7936136177191633e+00  1.7738641102229786e+00  1.7505237837788470e+00  1.7235926382134072e+00  1.6930706733367238e+00  1.6589578889418157e+00  1.6212542848041982e+00  1.5799598606814536e+00  1.5350746163128410e+00  1.4865985514189550e+00  1.4345316657014364e+00  1.3788739588427552e+00  1.3196254305060726e+00  1.2567860803351851e+00  1.1903559079545727e+00  1.1203349129695472e+00  1.0467230949665223e+00  9.6952045351340355e-01  8.8872698816011253e-01  8.0434269843924711e-01  7.1636758386688715e-01  6.2480164394354920e-01  5.2964487815529260e-01  4.3089728597498123e-01  3.2855886686369989e-01  2.2262962027232733e-01  1.1310954564326170e-01  -1.3575877034904260e-06  </DataArray> 
</PointData> 
</Piece>
</UnstructuredGrid>
</VTKFile>