<?xml version="1.0"?>
<VTKFile type="UnstructuredGrid"  version="0.1"  >
<UnstructuredGrid>
<Piece  NumberOfPoints="65" NumberOfCells="64">
<Points>
<DataArray  type="Float64"  NumberOfComponents="3"  format="ascii">0 0 0  0.0625 0 0  0.125 0 0  0.1875 0 0  0.25 0 0  0.3125 0 0  0.375 0 0  0.4375 0 0  0.5 0 0  0.5625 0 0  0.625 0 0  0.6875 0 0  0.75 0 0  0.8125 0 0  0.875 0 0  0.9375 0 0  1 0 0  1.0625 0 0  1.125 0 0  1.1875 0 0  1.25 0 0  1.3125 0 0  1.375 0 0  1.4375 0 0  1.5 0 0  1.5625 0 0  1.625 0 0  1.6875 0 0  1.75 0 0  1.8125 0 0  1.875 0 0  1.9375 0 0  2 0 0  2.0625 0 0  2.125 0 0  2.1875 0 0  2.25 0 0  2.3125 0 0  2.375 0 0  2.4375 0 0  2.5 0 0  2.5625 0 0  2.625 0 0  2.6875 0 0  2.75 0 0  2.8125 0 0  2.875 0 0  2.9375 0 0  3 0 0  3.0625 0 0  3.125 0 0  3.1875 0 0  3.25 0 0  3.3125 0 0  3.375 0 0  3.4375 0 0  3.5 0 0  3.5625 0 0  3.625 0 0  3.6875 0 0  3.75 0 0  3.8125 0 0  3.875 0 0  3.9375 0 0  4 0 0  </DataArray>
</Points>
<Cells>
<DataArray  type="UInt32"  Name="connectivity"  format="ascii">0 1  1 2  2 3  3 4  4 5  5 6  6 7  7 8  8 9  9 10  10 11  11 12  12 13  13 14  14 15  15 16  16 17  17 18  18 19  19 20  20 21  21 22  22 23  23 24  24 25  25 26  26 27  27 28  28 29  29 30  30 31  31 32  32 33  33 34  34 35  35 36  36 37  37 38  38 39  39 40  40 41  41 42  42 43  43 44  44 45  45 46  46 47  47 48  48 49  49 50  50 51  51 52  52 53  53 54  54 55  55 56  56 57  57 58  58 59  59 60  60 61  61 62  62 63  63 64  </DataArray>
<DataArray  type="UInt32"  Name="offsets"  format="ascii">2 4 6 8 10 12 14 16 18 20 22 24 26 28 30 32 34 36 38 40 42 44 46 48 50 52 54 56 58 60 62 64 66 68 70 72 74 76 78 80 82 84 86 88 90 92 94 96 98 100 102 104 106 108 110 112 114 116 118 120 122 124 126 128 </DataArray>
<DataArray  type="UInt8"  Name="types"  format="ascii">3 3 3 3 3 3 3 3 3 3 3 3 3 3 3 3 3 3 3 3 3 3 3 3 3 3 3 3 3 3 3 3 3 3 3 3 3 3 3 3 3 3 3 3 3 3 3 3 3 3 3 3 3 3 3 3 3 3 3 3 3 3 3 3 </DataArray>
</Cells>
<PointData  Scalars="U"> 
<DataArray  type="Float64"  Name="U"  format="ascii">0.0000000000000000e+00  -6.3887892713474373e-03  -1.3388705543893672e-02  -2.0930858997355459e-02  -2.8942897003414670e-02  -3.7350271423717343e-02  -4.6077488913437860e-02  -5.5049247874420039e-02  -6.4191478861535228e-02  -7.3432260695613996e-02  -8.2702585078296489e-02  -9.1936972676984571e-02  -1.0107394031356412e-01  -1.1005633122943151e-01  -1.1883151377100479e-01  -1.2735146505008998e-01  -1.3557276346283520e-01  -1.4345650008883729e-01  -1.5096813012444238e-01  -1.5807728454797107e-01  -1.6475755374571602e-01  -1.7098626126695443e-01  -1.7674423895524888e-01  -1.8201561470828456e-01  -1.8678762568753837e-01  -1.9105046052048516e-01  -1.9479714054914191e-01  -1.9802344837875668e-01  -2.0072790268788293e-01  -2.0291178836185078e-01  -2.0457924698554161e-01  -2.0573742436501977e-01  -2.0639668289317561e-01  -2.0657088066900250e-01  -2.0627771227050859e-01  -2.0553911543797757e-01  -2.0438174036880175e-01  -2.0283747305741129e-01  -2.0094400803717616e-01  -1.9874545734282045e-01  -1.9629298031644274e-01  -1.9364541192281479e-01  -1.9086986029332526e-01  -1.8804224834289074e-01  -1.8524774933122742e-01  -1.8258106753785544e-01  -1.8014652889215488e-01  -1.7805790182514189e-01  -1.7643788833379628e-01  -1.7541724079533416e-01  -1.7513342493316164e-01  -1.7572878804004863e-01  -1.7734817416501511e-01  -1.8013599295463170e-01  -1.8423276552134432e-01  -1.8977109597135133e-01  -1.9687125117029139e-01  -2.0563645896720636e-01  -2.1614802403914399e-01  -2.2846052546955214e-01  -2.4259729476879652e-01  -2.5854653028926222e-01  -2.7625821299606163e-01  -2.9564209260748886e-01  -3.1656703628273664e-01  </DataArray> 
</PointData> 
</Piece>
</UnstructuredGrid>
</VTKFile>