<?xml version="1.0"?>
<VTKFile type="UnstructuredGrid"  version="0.1"  >
<UnstructuredGrid>
<Piece  NumberOfPoints="65" NumberOfCells="64">
<Points>
<DataArray  type="Float64"  NumberOfComponents="3"  format="ascii">0 0 0  0.0625 0 0  0.125 0 0  0.1875 0 0  0.25 0 0  0.3125 0 0  0.375 0 0  0.4375 0 0  0.5 0 0  0.5625 0 0  0.625 0 0  0.6875 0 0  0.75 0 0  0.8125 0 0  0.875 0 0  0.9375 0 0  1 0 0  1.0625 0 0  1.125 0 0  1.1875 0 0  1.25 0 0  1.3125 0 0  1.375 0 0  1.4375 0 0  1.5 0 0  1.5625 0 0  1.625 0 0  1.6875 0 0  1.75 0 0  1.8125 0 0  1.875 0 0  1.9375 0 0  2 0 0  2.0625 0 0  2.125 0 0  2.1875 0 0  2.25 0 0  2.3125 0 0  2.375 0 0  2.4375 0 0  2.5 0 0  2.5625 0 0  2.625 0 0  2.6875 0 0  2.75 0 0  2.8125 0 0  2.875 0 0  2.9375 0 0  3 0 0  3.0625 0 0  3.125 0 0  3.1875 0 0  3.25 0 0  3.3125 0 0  3.375 0 0  3.4375 0 0  3.5 0 0  3.5625 0 0  3.625 0 0  3.6875 0 0  3.75 0 0  3.8125 0 0  3.875 0 0  3.9375 0 0  4 0 0  </DataArray>
</Points>
<Cells>
<DataArray  type="UInt32"  Name="connectivity"  format="ascii">0 1  1 2  2 3  3 4  4 5  5 6  6 7  7 8  8 9  9 10  10 11  11 12  12 13  13 14  14 15  15 16  16 17  17 18  18 19  19 20  20 21  21 22  22 23  23 24  24 25  25 26  26 27  27 28  28 29  29 30  30 31  31 32  32 33  33 34  34 35  35 36  36 37  37 38  38 39  39 40  40 41  41 42  42 43  43 44  44 45  45 46  46 47  47 48  48 49  49 50  50 51  51 52  52 53  53 54  54 55  55 56  56 57  57 58  58 59  59 60  60 61  61 62  62 63  63 64  </DataArray>
<DataArray  type="UInt32"  Name="offsets"  format="ascii">2 4 6 8 10 12 14 16 18 20 22 24 26 28 30 32 34 36 38 40 42 44 46 48 50 52 54 56 58 60 62 64 66 68 70 72 74 76 78 80 82 84 86 88 90 92 94 96 98 100 102 104 106 108 110 112 114 116 118 120 122 124 126 128 </DataArray>
<DataArray  type="UInt8"  Name="types"  format="ascii">3 3 3 3 3 3 3 3 3 3 3 3 3 3 3 3 3 3 3 3 3 3 3 3 3 3 3 3 3 3 3 3 3 3 3 3 3 3 3 3 3 3 3 3 3 3 3 3 3 3 3 3 3 3 3 3 3 3 3 3 3 3 3 3 </DataArray>
</Cells>
<PointData  Scalars="U"> 
<DataArray  type="Float64"  Name="U"  format="ascii">0.0000000000000000e+00  1.2278062156147126e-01  2.4166344261256290e-01  3.5664846349870771e-01  4.6773568454638009e-01  5.7492510606338032e-01  6.7821672833917446e-01  7.7761055164528259e-01  8.7310657623570476e-01  9.6470480234738432e-01  1.0524052302006923e+00  1.1362078599999352e+00  1.2161126919338674e+00  1.2921197261762152e+00  1.3642289628861923e+00  1.4324404022090074e+00  1.4967540442763578e+00  1.5571698892068979e+00  1.6136879371066821e+00  1.6663081880695698e+00  1.7150306421776000e+00  1.7598552995013124e+00  1.8007821601000282e+00  1.8378112240220759e+00  1.8709424913049619e+00  1.9001759619754841e+00  1.9255116360497881e+00  1.9469495135333537e+00  1.9644895944209264e+00  1.9781318786963811e+00  1.9878763663325230e+00  1.9937230572908267e+00  1.9956719515211134e+00  1.9937230489611699e+00  1.9878763495363123e+00  1.9781318531588961e+00  1.9644895597277814e+00  1.9469494691277558e+00  1.9255115812289214e+00  1.9001758958860553e+00  1.8709424129379457e+00  1.8378111322067232e+00  1.8007820534971828e+00  1.7598551765961177e+00  1.7150305012716731e+00  1.6663080272727255e+00  1.6136877543283070e+00  1.5571696821470848e+00  1.4967538104169011e+00  1.4324401388044017e+00  1.3642286669547454e+00  1.2921193944914262e+00  1.2161123210162070e+00  1.1362074461091851e+00  1.0524047693289922e+00  9.6470429021315052e-01  8.7310600827858242e-01  7.7760992302229270e-01  6.7821603392222463e-01  5.7492434043829510e-01  4.6773484201361953e-01  3.5664753807592148e-01  2.4166242803913360e-01  1.2277951130518747e-01  -1.2127340114940788e-06  </DataArray> 
</PointData> 
</Piece>
</UnstructuredGrid>
</VTKFile>