<?xml version="1.0"?>
<VTKFile type="UnstructuredGrid"  version="0.1"  >
<UnstructuredGrid>
<Piece  NumberOfPoints="65" NumberOfCells="64">
<Points>
<DataArray  type="Float64"  NumberOfComponents="3"  format="ascii">0 0 0  0.0625 0 0  0.125 0 0  0.1875 0 0  0.25 0 0  0.3125 0 0  0.375 0 0  0.4375 0 0  0.5 0 0  0.5625 0 0  0.625 0 0  0.6875 0 0  0.75 0 0  0.8125 0 0  0.875 0 0  0.9375 0 0  1 0 0  1.0625 0 0  1.125 0 0  1.1875 0 0  1.25 0 0  1.3125 0 0  1.375 0 0  1.4375 0 0  1.5 0 0  1.5625 0 0  1.625 0 0  1.6875 0 0  1.75 0 0  1.8125 0 0  1.875 0 0  1.9375 0 0  2 0 0  2.0625 0 0  2.125 0 0  2.1875 0 0  2.25 0 0  2.3125 0 0  2.375 0 0  2.4375 0 0  2.5 0 0  2.5625 0 0  2.625 0 0  2.6875 0 0  2.75 0 0  2.8125 0 0  2.875 0 0  2.9375 0 0  3 0 0  3.0625 0 0  3.125 0 0  3.1875 0 0  3.25 0 0  3.3125 0 0  3.375 0 0  3.4375 0 0  3.5 0 0  3.5625 0 0  3.625 0 0  3.6875 0 0  3.75 0 0  3.8125 0 0  3.875 0 0  3.9375 0 0  4 0 0  </DataArray>
</Points>
<Cells>
<DataArray  type="UInt32"  Name="connectivity"  format="ascii">0 1  1 2  2 3  3 4  4 5  5 6  6 7  7 8  8 9  9 10  10 11  11 12  12 13  13 14  14 15  15 16  16 17  17 18  18 19  19 20  20 21  21 22  22 23  23 24  24 25  25 26  26 27  27 28  28 29  29 30  30 31  31 32  32 33  33 34  34 35  35 36  36 37  37 38  38 39  39 40  40 41  41 42  42 43  43 44  44 45  45 46  46 47  47 48  48 49  49 50  50 51  51 52  52 53  53 54  54 55  55 56  56 57  57 58  58 59  59 60  60 61  61 62  62 63  63 64  </DataArray>
<DataArray  type="UInt32"  Name="offsets"  format="ascii">2 4 6 8 10 12 14 16 18 20 22 24 26 28 30 32 34 36 38 40 42 44 46 48 50 52 54 56 58 60 62 64 66 68 70 72 74 76 78 80 82 84 86 88 90 92 94 96 98 100 102 104 106 108 110 112 114 116 118 120 122 124 126 128 </DataArray>
<DataArray  type="UInt8"  Name="types"  format="ascii">3 3 3 3 3 3 3 3 3 3 3 3 3 3 3 3 3 3 3 3 3 3 3 3 3 3 3 3 3 3 3 3 3 3 3 3 3 3 3 3 3 3 3 3 3 3 3 3 3 3 3 3 3 3 3 3 3 3 3 3 3 3 3 3 </DataArray>
</Cells>
<PointData  Scalars="U"> 
<DataArray  type="Float64"  Name="U"  format="ascii">0.0000000000000000e+00  -7.0878657977754500e-02  -1.4339915701834396e-01  -2.1724457336872269e-01  -2.9210036367482251e-01  -3.6765557333250726e-01  -4.4360403056507208e-01  -5.1964552165292222e-01  -5.9548694301739136e-01  -6.7084342618586423e-01  -7.4543943202636731e-01  -8.1900981102183801e-01  -8.9130082674149036e-01  -9.6207114004252348e-01  -1.0310927518833324e+00  -1.0981519029333255e+00  -1.1630499284095575e+00  -1.2256040667434758e+00  -1.2856482207712427e+00  -1.3430336701401864e+00  -1.3976297335270085e+00  -1.4493243790690542e+00  -1.4980247811206433e+00  -1.5436578210685989e+00  -1.5861705294851258e+00  -1.6255304663764560e+00  -1.6617260357203409e+00  -1.6947667298960309e+00  -1.7246832990213834e+00  -1.7515278396499760e+00  -1.7753737967751924e+00  -1.7963158726675812e+00  -1.8144698357659026e+00  -1.8299722226797195e+00  -1.8429799263689546e+00  -1.8536696637674068e+00  -1.8622373165330051e+00  -1.8688971392530391e+00  -1.8738808303178101e+00  -1.8774364618049082e+00  -1.8798272660857744e+00  -1.8813302784663282e+00  -1.8822348369868847e+00  -1.8828409425087154e+00  -1.8834574843736496e+00  -1.8844003392007702e+00  -1.8859903527362214e+00  -1.8885512170491447e+00  -1.8924072577156323e+00  -1.8978811478975264e+00  -1.9052915683469622e+00  -1.9149508342941510e+00  -1.9271625118504230e+00  -1.9422190479299772e+00  -1.9603994387162027e+00  -1.9819669623326872e+00  -2.0071670015937970e+00  -2.0362249824829290e+00  -2.0693444533260896e+00  -2.1067053284929655e+00  -2.1484623188767120e+00  -2.1947435693979438e+00  -2.2456495213792280e+00  -2.3012520148852116e+00  -2.3615936430709032e+00  </DataArray> 
</PointData> 
</Piece>
</UnstructuredGrid>
</VTKFile>