<?xml version="1.0"?>
<VTKFile type="UnstructuredGrid"  version="0.1"  >
<UnstructuredGrid>
<Piece  NumberOfPoints="65" NumberOfCells="64">
<Points>
<DataArray  type="Float64"  NumberOfComponents="3"  format="ascii">0 0 0  0.0625 0 0  0.125 0 0  0.1875 0 0  0.25 0 0  0.3125 0 0  0.375 0 0  0.4375 0 0  0.5 0 0  0.5625 0 0  0.625 0 0  0.6875 0 0  0.75 0 0  0.8125 0 0  0.875 0 0  0.9375 0 0  1 0 0  1.0625 0 0  1.125 0 0  1.1875 0 0  1.25 0 0  1.3125 0 0  1.375 0 0  1.4375 0 0  1.5 0 0  1.5625 0 0  1.625 0 0  1.6875 0 0  1.75 0 0  1.8125 0 0  1.875 0 0  1.9375 0 0  2 0 0  2.0625 0 0  2.125 0 0  2.1875 0 0  2.25 0 0  2.3125 0 0  2.375 0 0  2.4375 0 0  2.5 0 0  2.5625 0 0  2.625 0 0  2.6875 0 0  2.75 0 0  2.8125 0 0  2.875 0 0  2.9375 0 0  3 0 0  3.0625 0 0  3.125 0 0  3.1875 0 0  3.25 0 0  3.3125 0 0  3.375 0 0  3.4375 0 0  3.5 0 0  3.5625 0 0  3.625 0 0  3.6875 0 0  3.75 0 0  3.8125 0 0  3.875 0 0  3.9375 0 0  4 0 0  </DataArray>
</Points>
<Cells>
<DataArray  type="UInt32"  Name="connectivity"  format="ascii">0 1  1 2  2 3  3 4  4 5  5 6  6 7  7 8  8 9  9 10  10 11  11 12  12 13  13 14  14 15  15 16  16 17  17 18  18 19  19 20  20 21  21 22  22 23  23 24  24 25  25 26  26 27  27 28  28 29  29 30  30 31  31 32  32 33  33 34  34 35  35 36  36 37  37 38  38 39  39 40  40 41  41 42  42 43  43 44  44 45  45 46  46 47  47 48  48 49  49 50  50 51  51 52  52 53  53 54  54 55  55 56  56 57  57 58  58 59  59 60  60 61  61 62  62 63  63 64  </DataArray>
<DataArray  type="UInt32"  Name="offsets"  format="ascii">2 4 6 8 10 12 14 16 18 20 22 24 26 28 30 32 34 36 38 40 42 44 46 48 50 52 54 56 58 60 62 64 66 68 70 72 74 76 78 80 82 84 86 88 90 92 94 96 98 100 102 104 106 108 110 112 114 116 118 120 122 124 126 128 </DataArray>
<DataArray  type="UInt8"  Name="types"  format="ascii">3 3 3 3 3 3 3 3 3 3 3 3 3 3 3 3 3 3 3 3 3 3 3 3 3 3 3 3 3 3 3 3 3 3 3 3 3 3 3 3 3 3 3 3 3 3 3 3 3 3 3 3 3 3 3 3 3 3 3 3 3 3 3 3 </DataArray>
</Cells>
<PointData  Scalars="U"> 
<DataArray  type="Float64"  Name="U"  format="ascii">0.0000000000000000e+00  -6.2628192590192325e-02  -1.2752469833391145e-01  -1.9432188192264654e-01  -2.6265502224829612e-01  -3.3216378317358342e-01  -4.0249365268890941e-01  -4.7329734098310650e-01  -5.4423612900027218e-01  -6.1498116029856109e-01  -6.8521467042975404e-01  -7.5463114957538868e-01  -8.2293843575676850e-01  -8.8985873752992894e-01  -9.5512958662884206e-01  -1.0185047224770423e+00  -1.0797549117972631e+00  -1.1386687076614248e+00  -1.1950531531947473e+00  -1.2487344357390251e+00  -1.2995584975595156e+00  -1.3473916091239491e+00  -1.3921209105767200e+00  -1.4336549262721388e+00  -1.4719240561243161e+00  -1.5068810460954281e+00  -1.5385014384076732e+00  -1.5667840000673170e+00  -1.5917511260827224e+00  -1.6134492114032530e+00  -1.6319489831726957e+00  -1.6473457824574245e+00  -1.6597597822603087e+00  -1.6693361264548652e+00  -1.6762449723609636e+00  -1.6806814181234304e+00  -1.6828652949347915e+00  -1.6830408035433846e+00  -1.6814759744790306e+00  -1.6784619320689047e+00  -1.6743119436492540e+00  -1.6693602374293437e+00  -1.6639605752371460e+00  -1.6584845698544191e+00  -1.6533197407910063e+00  -1.6488673070896125e+00  -1.6455397210044269e+00  -1.6437579520488341e+00  -1.6439485368275957e+00  -1.6465404161085393e+00  -1.6519615865854032e+00  -1.6606356005656711e+00  -1.6729779522097019e+00  -1.6893923937769233e+00  -1.7102672294359500e+00  -1.7359716374167564e+00  -1.7668520734927935e+00  -1.8032288098727034e+00  -1.8453926634782996e+00  -1.8936019662446604e+00  -1.9480798274926654e+00  -2.0090117346248362e+00  -2.0765435334504034e+00  -2.1507798234598887e+00  -2.2317827964813852e+00  </DataArray> 
</PointData> 
</Piece>
</UnstructuredGrid>
</VTKFile>