<?xml version="1.0"?>
<VTKFile type="UnstructuredGrid"  version="0.1"  >
<UnstructuredGrid>
<Piece  NumberOfPoints="65" NumberOfCells="64">
<Points>
<DataArray  type="Float64"  NumberOfComponents="3"  format="ascii">0 0 0  0.0625 0 0  0.125 0 0  0.1875 0 0  0.25 0 0  0.3125 0 0  0.375 0 0  0.4375 0 0  0.5 0 0  0.5625 0 0  0.625 0 0  0.6875 0 0  0.75 0 0  0.8125 0 0  0.875 0 0  0.9375 0 0  1 0 0  1.0625 0 0  1.125 0 0  1.1875 0 0  1.25 0 0  1.3125 0 0  1.375 0 0  1.4375 0 0  1.5 0 0  1.5625 0 0  1.625 0 0  1.6875 0 0  1.75 0 0  1.8125 0 0  1.875 0 0  1.9375 0 0  2 0 0  2.0625 0 0  2.125 0 0  2.1875 0 0  2.25 0 0  2.3125 0 0  2.375 0 0  2.4375 0 0  2.5 0 0  2.5625 0 0  2.625 0 0  2.6875 0 0  2.75 0 0  2.8125 0 0  2.875 0 0  2.9375 0 0  3 0 0  3.0625 0 0  3.125 0 0  3.1875 0 0  3.25 0 0  3.3125 0 0  3.375 0 0  3.4375 0 0  3.5 0 0  3.5625 0 0  3.625 0 0  3.6875 0 0  3.75 0 0  3.8125 0 0  3.875 0 0  3.9375 0 0  4 0 0  </DataArray>
</Points>
<Cells>
<DataArray  type="UInt32"  Name="connectivity"  format="ascii">0 1  1 2  2 3  3 4  4 5  5 6  6 7  7 8  8 9  9 10  10 11  11 12  12 13  13 14  14 15  15 16  16 17  17 18  18 19  19 20  20 21  21 22  22 23  23 24  24 25  25 26  26 27  27 28  28 29  29 30  30 31  31 32  32 33  33 34  34 35  35 36  36 37  37 38  38 39  39 40  40 41  41 42  42 43  43 44  44 45  45 46  46 47  47 48  48 49  49 50  50 51  51 52  52 53  53 54  54 55  55 56  56 57  57 58  58 59  59 60  60 61  61 62  62 63  63 64  </DataArray>
<DataArray  type="UInt32"  Name="offsets"  format="ascii">2 4 6 8 10 12 14 16 18 20 22 24 26 28 30 32 34 36 38 40 42 44 46 48 50 52 54 56 58 60 62 64 66 68 70 72 74 76 78 80 82 84 86 88 90 92 94 96 98 100 102 104 106 108 110 112 114 116 118 120 122 124 126 128 </DataArray>
<DataArray  type="UInt8"  Name="types"  format="ascii">3 3 3 3 3 3 3 3 3 3 3 3 3 3 3 3 3 3 3 3 3 3 3 3 3 3 3 3 3 3 3 3 3 3 3 3 3 3 3 3 3 3 3 3 3 3 3 3 3 3 3 3 3 3 3 3 3 3 3 3 3 3 3 3 </DataArray>
</Cells>
<PointData  Scalars="U"> 
<DataArray  type="Float64"  Name="U"  format="ascii">0.0000000000000000e+00  1.6847811484754863e-01  3.3160771601627598e-01  4.8938880380484162e-01  6.4182137848735787e-01  7.8890544031450105e-01  9.3064098951467789e-01  1.0670280262952367e+00  1.1980665508437063e+00  1.3237565633290473e+00  1.4440980639029088e+00  1.5590910527008699e+00  1.6687355298436584e+00  1.7730314954383399e+00  1.8719789495794650e+00  1.9655778923501603e+00  2.0538283238231720e+00  2.1367302440618396e+00  2.2142836531210048e+00  2.2864885510478477e+00  2.3533449378826519e+00  2.4148528136594818e+00  2.4710121784067915e+00  2.5218230321479438e+00  2.5672853749016471e+00  2.6073992066823068e+00  2.6421645275002890e+00  2.6715813373620949e+00  2.6956496362704412e+00  2.7143694242242447e+00  2.7277407012185146e+00  2.7357634672441353e+00  2.7384377222875522e+00  2.7357634663303396e+00  2.7277406993486619e+00  2.7143694213126137e+00  2.6956496321854435e+00  2.6715813319226429e+00  2.6421645204709234e+00  2.6073991977670508e+00  2.5672853637365636e+00  2.5218230182923578e+00  2.4710121613331535e+00  2.4148527927418471e+00  2.3533449123837542e+00  2.2864885201047707e+00  2.2142836157294381e+00  2.1367301990589742e+00  2.0538282698692498e+00  1.9655778279087692e+00  1.8719788728966675e+00  1.7730314045207609e+00  1.6687354224356927e+00  1.5590909262612007e+00  1.4440979155805531e+00  1.3237563899391964e+00  1.1980663488436465e+00  1.0670277917606721e+00  9.3064071811680704e-01  7.8890512729822204e-01  6.4182101865100150e-01  4.8938839148183966e-01  3.3160724505919503e-01  1.6847757861490975e-01  -6.0865368698759776e-07  </DataArray> 
</PointData> 
</Piece>
</UnstructuredGrid>
</VTKFile>