<?xml version="1.0"?>
<VTKFile type="UnstructuredGrid"  version="0.1"  >
<UnstructuredGrid>
<Piece  NumberOfPoints="65" NumberOfCells="64">
<Points>
<DataArray  type="Float64"  NumberOfComponents="3"  format="ascii">0 0 0  0.0625 0 0  0.125 0 0  0.1875 0 0  0.25 0 0  0.3125 0 0  0.375 0 0  0.4375 0 0  0.5 0 0  0.5625 0 0  0.625 0 0  0.6875 0 0  0.75 0 0  0.8125 0 0  0.875 0 0  0.9375 0 0  1 0 0  1.0625 0 0  1.125 0 0  1.1875 0 0  1.25 0 0  1.3125 0 0  1.375 0 0  1.4375 0 0  1.5 0 0  1.5625 0 0  1.625 0 0  1.6875 0 0  1.75 0 0  1.8125 0 0  1.875 0 0  1.9375 0 0  2 0 0  2.0625 0 0  2.125 0 0  2.1875 0 0  2.25 0 0  2.3125 0 0  2.375 0 0  2.4375 0 0  2.5 0 0  2.5625 0 0  2.625 0 0  2.6875 0 0  2.75 0 0  2.8125 0 0  2.875 0 0  2.9375 0 0  3 0 0  3.0625 0 0  3.125 0 0  3.1875 0 0  3.25 0 0  3.3125 0 0  3.375 0 0  3.4375 0 0  3.5 0 0  3.5625 0 0  3.625 0 0  3.6875 0 0  3.75 0 0  3.8125 0 0  3.875 0 0  3.9375 0 0  4 0 0  </DataArray>
</Points>
<Cells>
<DataArray  type="UInt32"  Name="connectivity"  format="ascii">0 1  1 2  2 3  3 4  4 5  5 6  6 7  7 8  8 9  9 10  10 11  11 12  12 13  13 14  14 15  15 16  16 17  17 18  18 19  19 20  20 21  21 22  22 23  23 24  24 25  25 26  26 27  27 28  28 29  29 30  30 31  31 32  32 33  33 34  34 35  35 36  36 37  37 38  38 39  39 40  40 41  41 42  42 43  43 44  44 45  45 46  46 47  47 48  48 49  49 50  50 51  51 52  52 53  53 54  54 55  55 56  56 57  57 58  58 59  59 60  60 61  61 62  62 63  63 64  </DataArray>
<DataArray  type="UInt32"  Name="offsets"  format="ascii">2 4 6 8 10 12 14 16 18 20 22 24 26 28 30 32 34 36 38 40 42 44 46 48 50 52 54 56 58 60 62 64 66 68 70 72 74 76 78 80 82 84 86 88 90 92 94 96 98 100 102 104 106 108 110 112 114 116 118 120 122 124 126 128 </DataArray>
<DataArray  type="UInt8"  Name="types"  format="ascii">3 3 3 3 3 3 3 3 3 3 3 3 3 3 3 3 3 3 3 3 3 3 3 3 3 3 3 3 3 3 3 3 3 3 3 3 3 3 3 3 3 3 3 3 3 3 3 3 3 3 3 3 3 3 3 3 3 3 3 3 3 3 3 3 </DataArray>
</Cells>
<PointData  Scalars="U"> 
<DataArray  type="Float64"  Name="U"  format="ascii">0.0000000000000000e+00  -7.5683133368893665e-02  -1.5251740502254710e-01  -2.3023221192078958e-01  -3.0855901801820534e-01  -3.8723240120325664e-01  -4.6599109007335549e-01  -5.4457898709413333e-01  -6.2274617473191540e-01  -7.0024990119560848e-01  -7.7685554247520505e-01  -8.5233753741600327e-01  -9.2648029261750109e-01  -9.9907905399079644e-01  -1.0699407418456084e+00  -1.1388847464054055e+00  -1.2057436806649078e+00  -1.2703640875073958e+00  -1.3326070979896458e+00  -1.3923490376806344e+00  -1.4494819779082355e+00  -1.5039142287287535e+00  -1.5555707703911950e+00  -1.6043936200266298e+00  -1.6503421302586743e+00  -1.6933932164108840e+00  -1.7335415089880344e+00  -1.7707994281390067e+00  -1.8051971768775033e+00  -1.8367826499515323e+00  -1.8656212554216935e+00  -1.8917956462394485e+00  -1.9154053594167388e+00  -1.9365663607533623e+00  -1.9554104935429784e+00  -1.9720848302154146e+00  -1.9867509264931811e+00  -1.9995839783428098e+00  -2.0107718827837306e+00  -2.0205142044734230e+00  -2.0290210509098134e+00  -2.0365118600702603e+00  -2.0432141053286732e+00  -2.0493619235440179e+00  -2.0551946732783617e+00  -2.0609554311629363e+00  -2.0668894354673455e+00  -2.0732424869200470e+00  -2.0802593177572519e+00  -2.0881819408220070e+00  -2.0972479912756810e+00  -2.1076890741014265e+00  -2.1197291310562063e+00  -2.1335828410491793e+00  -2.1494540680767091e+00  -2.1675343708178043e+00  -2.1880015877813372e+00  -2.2110185114943257e+00  -2.2367316646287509e+00  -2.2652701901865790e+00  -2.2967448669060899e+00  -2.3312472599283387e+00  -2.3688490154850625e+00  -2.4096013069562243e+00  -2.4535344381172406e+00  </DataArray> 
</PointData> 
</Piece>
</UnstructuredGrid>
</VTKFile>