<?xml version="1.0"?>
<VTKFile type="UnstructuredGrid"  version="0.1"  >
<UnstructuredGrid>
<Piece  NumberOfPoints="65" NumberOfCells="64">
<Points>
<DataArray  type="Float64"  NumberOfComponents="3"  format="ascii">0 0 0  0.0625 0 0  0.125 0 0  0.1875 0 0  0.25 0 0  0.3125 0 0  0.375 0 0  0.4375 0 0  0.5 0 0  0.5625 0 0  0.625 0 0  0.6875 0 0  0.75 0 0  0.8125 0 0  0.875 0 0  0.9375 0 0  1 0 0  1.0625 0 0  1.125 0 0  1.1875 0 0  1.25 0 0  1.3125 0 0  1.375 0 0  1.4375 0 0  1.5 0 0  1.5625 0 0  1.625 0 0  1.6875 0 0  1.75 0 0  1.8125 0 0  1.875 0 0  1.9375 0 0  2 0 0  2.0625 0 0  2.125 0 0  2.1875 0 0  2.25 0 0  2.3125 0 0  2.375 0 0  2.4375 0 0  2.5 0 0  2.5625 0 0  2.625 0 0  2.6875 0 0  2.75 0 0  2.8125 0 0  2.875 0 0  2.9375 0 0  3 0 0  3.0625 0 0  3.125 0 0  3.1875 0 0  3.25 0 0  3.3125 0 0  3.375 0 0  3.4375 0 0  3.5 0 0  3.5625 0 0  3.625 0 0  3.6875 0 0  3.75 0 0  3.8125 0 0  3.875 0 0  3.9375 0 0  4 0 0  </DataArray>
</Points>
<Cells>
<DataArray  type="UInt32"  Name="connectivity"  format="ascii">0 1  1 2  2 3  3 4  4 5  5 6  6 7  7 8  8 9  9 10  10 11  11 12  12 13  13 14  14 15  15 16  16 17  17 18  18 19  19 20  20 21  21 22  22 23  23 24  24 25  25 26  26 27  27 28  28 29  29 30  30 31  31 32  32 33  33 34  34 35  35 36  36 37  37 38  38 39  39 40  40 41  41 42  42 43  43 44  44 45  45 46  46 47  47 48  48 49  49 50  50 51  51 52  52 53  53 54  54 55  55 56  56 57  57 58  58 59  59 60  60 61  61 62  62 63  63 64  </DataArray>
<DataArray  type="UInt32"  Name="offsets"  format="ascii">2 4 6 8 10 12 14 16 18 20 22 24 26 28 30 32 34 36 38 40 42 44 46 48 50 52 54 56 58 60 62 64 66 68 70 72 74 76 78 80 82 84 86 88 90 92 94 96 98 100 102 104 106 108 110 112 114 116 118 120 122 124 126 128 </DataArray>
<DataArray  type="UInt8"  Name="types"  format="ascii">3 3 3 3 3 3 3 3 3 3 3 3 3 3 3 3 3 3 3 3 3 3 3 3 3 3 3 3 3 3 3 3 3 3 3 3 3 3 3 3 3 3 3 3 3 3 3 3 3 3 3 3 3 3 3 3 3 3 3 3 3 3 3 3 </DataArray>
</Cells>
<PointData  Scalars="U"> 
<DataArray  type="Float64"  Name="U"  format="ascii">0.0000000000000000e+00  -7.3420895722185187e-02  -1.4824774971897628e-01  -2.2418479624449478e-01  -3.0093849868780076e-01  -3.7821868068553438e-01  -4.5573964568011371e-01  -5.3322128109537215e-01  -6.1039014343069242e-01  -6.8698052072553406e-01  -7.6273546901178946e-01  -8.3740781954380950e-01  -9.1076115376693223e-01  -9.8257074314643145e-01  -1.0526244511216862e+00  -1.1207235945672336e+00  -1.1866837622263287e+00  -1.2503355876279101e+00  -1.3115254740003148e+00  -1.3701162686521744e+00  -1.4259878842022911e+00  -1.4790378639075918e+00  -1.5291818881655468e+00  -1.5763542190609416e+00  -1.6205080795952591e+00  -1.6616159639907844e+00  -1.6996698752136026e+00  -1.7346814856242598e+00  -1.7666822164576259e+00  -1.7957232316710954e+00  -1.8218753415996933e+00  -1.8452288118349212e+00  -1.8658930728176923e+00  -1.8839963258196157e+00  -1.8996850412947333e+00  -1.9131233460266528e+00  -1.9244922960822683e+00  -1.9339890333178777e+00  -1.9418258240678197e+00  -1.9482289796770560e+00  -1.9534376597104111e+00  -1.9577025599710771e+00  -1.9612844888738450e+00  -1.9644528372242576e+00  -1.9674839480297130e+00  -1.9706593945848694e+00  -1.9742641767010400e+00  -1.9785848465546620e+00  -1.9839075771786980e+00  -1.9905161880775588e+00  -1.9986901437753060e+00  -2.0087025422740443e+00  -2.0208181113718964e+00  -2.0352912315380305e+00  -2.0523640045397253e+00  -2.0722643872419106e+00  -2.0952044099366027e+00  -2.1213784981977200e+00  -2.1509619165915974e+00  -2.1841093516075158e+00  -2.2209536499147045e+00  -2.2616047265182391e+00  -2.3061486555980193e+00  -2.3546469548006130e+00  -2.4071360715465167e+00  </DataArray> 
</PointData> 
</Piece>
</UnstructuredGrid>
</VTKFile>