<?xml version="1.0"?>
<VTKFile type="UnstructuredGrid"  version="0.1"  >
<UnstructuredGrid>
<Piece  NumberOfPoints="65" NumberOfCells="64">
<Points>
<DataArray  type="Float64"  NumberOfComponents="3"  format="ascii">0 0 0  0.0625 0 0  0.125 0 0  0.1875 0 0  0.25 0 0  0.3125 0 0  0.375 0 0  0.4375 0 0  0.5 0 0  0.5625 0 0  0.625 0 0  0.6875 0 0  0.75 0 0  0.8125 0 0  0.875 0 0  0.9375 0 0  1 0 0  1.0625 0 0  1.125 0 0  1.1875 0 0  1.25 0 0  1.3125 0 0  1.375 0 0  1.4375 0 0  1.5 0 0  1.5625 0 0  1.625 0 0  1.6875 0 0  1.75 0 0  1.8125 0 0  1.875 0 0  1.9375 0 0  2 0 0  2.0625 0 0  2.125 0 0  2.1875 0 0  2.25 0 0  2.3125 0 0  2.375 0 0  2.4375 0 0  2.5 0 0  2.5625 0 0  2.625 0 0  2.6875 0 0  2.75 0 0  2.8125 0 0  2.875 0 0  2.9375 0 0  3 0 0  3.0625 0 0  3.125 0 0  3.1875 0 0  3.25 0 0  3.3125 0 0  3.375 0 0  3.4375 0 0  3.5 0 0  3.5625 0 0  3.625 0 0  3.6875 0 0  3.75 0 0  3.8125 0 0  3.875 0 0  3.9375 0 0  4 0 0  </DataArray>
</Points>
<Cells>
<DataArray  type="UInt32"  Name="connectivity"  format="ascii">0 1  1 2  2 3  3 4  4 5  5 6  6 7  7 8  8 9  9 10  10 11  11 12  12 13  13 14  14 15  15 16  16 17  17 18  18 19  19 20  20 21  21 22  22 23  23 24  24 25  25 26  26 27  27 28  28 29  29 30  30 31  31 32  32 33  33 34  34 35  35 36  36 37  37 38  38 39  39 40  40 41  41 42  42 43  43 44  44 45  45 46  46 47  47 48  48 49  49 50  50 51  51 52  52 53  53 54  54 55  55 56  56 57  57 58  58 59  59 60  60 61  61 62  62 63  63 64  </DataArray>
<DataArray  type="UInt32"  Name="offsets"  format="ascii">2 4 6 8 10 12 14 16 18 20 22 24 26 28 30 32 34 36 38 40 42 44 46 48 50 52 54 56 58 60 62 64 66 68 70 72 74 76 78 80 82 84 86 88 90 92 94 96 98 100 102 104 106 108 110 112 114 116 118 120 122 124 126 128 </DataArray>
<DataArray  type="UInt8"  Name="types"  format="ascii">3 3 3 3 3 3 3 3 3 3 3 3 3 3 3 3 3 3 3 3 3 3 3 3 3 3 3 3 3 3 3 3 3 3 3 3 3 3 3 3 3 3 3 3 3 3 3 3 3 3 3 3 3 3 3 3 3 3 3 3 3 3 3 3 </DataArray>
</Cells>
<PointData  Scalars="U"> 
<DataArray  type="Float64"  Name="U"  format="ascii">0.0000000000000000e+00  -8.2866246836255150e-03  -1.6991403182976685e-02  -2.6064875503315054e-02  -3.5454711094019382e-02  -4.5106371742900261e-02  -5.4963810875094499e-02  -6.4970128766613316e-02  -7.5068219636322847e-02  -8.5201389525848117e-02  -9.5313919511510567e-02  -1.0535157586415178e-01  -1.1526205863838970e-01  -1.2499539056428437e-01  -1.3450423984694565e-01  -1.4374417894063515e-01  -1.5267389054649497e-01  -1.6125531830831630e-01  -1.6945377067293987e-01  -1.7723798949769157e-01  -1.8458018666902581e-01  -1.9145605928137963e-01  -1.9784479146107287e-01  -2.0372904984175569e-01  -2.0909498211108313e-01  -2.1393222256638303e-01  -2.1823391233762665e-01  -2.2199674076532394e-01  -2.2522100796807384e-01  -2.2791071444024202e-01  -2.3007368015095411e-01  -2.3172168927186704e-01  -2.3287066264364673e-01  -2.3354085533984714e-01  -2.3375707128669126e-01  -2.3354889125494113e-01  -2.3295090529910129e-01  -2.3200293724205828e-01  -2.3075024955006815e-01  -2.2924371263783982e-01  -2.2753992303443826e-01  -2.2570124899262076e-01  -2.2379578164940894e-01  -2.2189717757510588e-01  -2.2008436154268066e-01  -2.1844106708391789e-01  -2.1705520972471876e-01  -2.1601805833338966e-01  -2.1542319381275563e-01  -2.1536526069688852e-01  -2.1593849809796284e-01  -2.1723506862772474e-01  -2.1934317985227722e-01  -2.2234505906923205e-01  -2.2631483663060342e-01  -2.3131630005395415e-01  -2.3740068454183888e-01  -2.4460456129760696e-01  -2.5294784621244398e-01  -2.6243206080113479e-01  -2.7303889133095699e-01  -2.8472922803060757e-01  -2.9744264614366756e-01  -3.1109740763196581e-01  -3.2559109985249685e-01  </DataArray> 
</PointData> 
</Piece>
</UnstructuredGrid>
</VTKFile>