<?xml version="1.0"?>
<VTKFile type="UnstructuredGrid"  version="0.1"  >
<UnstructuredGrid>
<Piece  NumberOfPoints="65" NumberOfCells="64">
<Points>
<DataArray  type="Float64"  NumberOfComponents="3"  format="ascii">0 0 0  0.0625 0 0  0.125 0 0  0.1875 0 0  0.25 0 0  0.3125 0 0  0.375 0 0  0.4375 0 0  0.5 0 0  0.5625 0 0  0.625 0 0  0.6875 0 0  0.75 0 0  0.8125 0 0  0.875 0 0  0.9375 0 0  1 0 0  1.0625 0 0  1.125 0 0  1.1875 0 0  1.25 0 0  1.3125 0 0  1.375 0 0  1.4375 0 0  1.5 0 0  1.5625 0 0  1.625 0 0  1.6875 0 0  1.75 0 0  1.8125 0 0  1.875 0 0  1.9375 0 0  2 0 0  2.0625 0 0  2.125 0 0  2.1875 0 0  2.25 0 0  2.3125 0 0  2.375 0 0  2.4375 0 0  2.5 0 0  2.5625 0 0  2.625 0 0  2.6875 0 0  2.75 0 0  2.8125 0 0  2.875 0 0  2.9375 0 0  3 0 0  3.0625 0 0  3.125 0 0  3.1875 0 0  3.25 0 0  3.3125 0 0  3.375 0 0  3.4375 0 0  3.5 0 0  3.5625 0 0  3.625 0 0  3.6875 0 0  3.75 0 0  3.8125 0 0  3.875 0 0  3.9375 0 0  4 0 0  </DataArray>
</Points>
<Cells>
<DataArray  type="UInt32"  Name="connectivity"  format="ascii">0 1  1 2  2 3  3 4  4 5  5 6  6 7  7 8  8 9  9 10  10 11  11 12  12 13  13 14  14 15  15 16  16 17  17 18  18 19  19 20  20 21  21 22  22 23  23 24  24 25  25 26  26 27  27 28  28 29  29 30  30 31  31 32  32 33  33 34  34 35  35 36  36 37  37 38  38 39  39 40  40 41  41 42  42 43  43 44  44 45  45 46  46 47  47 48  48 49  49 50  50 51  51 52  52 53  53 54  54 55  55 56  56 57  57 58  58 59  59 60  60 61  61 62  62 63  63 64  </DataArray>
<DataArray  type="UInt32"  Name="offsets"  format="ascii">2 4 6 8 10 12 14 16 18 20 22 24 26 28 30 32 34 36 38 40 42 44 46 48 50 52 54 56 58 60 62 64 66 68 70 72 74 76 78 80 82 84 86 88 90 92 94 96 98 100 102 104 106 108 110 112 114 116 118 120 122 124 126 128 </DataArray>
<DataArray  type="UInt8"  Name="types"  format="ascii">3 3 3 3 3 3 3 3 3 3 3 3 3 3 3 3 3 3 3 3 3 3 3 3 3 3 3 3 3 3 3 3 3 3 3 3 3 3 3 3 3 3 3 3 3 3 3 3 3 3 3 3 3 3 3 3 3 3 3 3 3 3 3 3 </DataArray>
</Cells>
<PointData  Scalars="ud"> 
<DataArray  type="Float64"  Name="ud"  format="ascii">0.0000000000000000e+00  1.5703894169936958e-01  3.0909252017018773e-01  4.5616073541245450e-01  5.9824358742616979e-01  7.3534107621133371e-01  8.6745320176794627e-01  9.9457996409600735e-01  1.1167213631955171e+00  1.2338773990664753e+00  1.3460480717088821e+00  1.4532333811227376e+00  1.5554333273080416e+00  1.6526479102647942e+00  1.7448771299929953e+00  1.8321209864926451e+00  1.9143794797637435e+00  1.9916526098062903e+00  2.0639403766202857e+00  2.1312427802057301e+00  2.1935598205626228e+00  2.2508914976909642e+00  2.3032378115907539e+00  2.3505987622619924e+00  2.3929743497046791e+00  2.4303645739188151e+00  2.4627694349043989e+00  2.4901889326614319e+00  2.5126230671899132e+00  2.5300718384898433e+00  2.5425352465612217e+00  2.5500132914040488e+00  2.5525059730183246e+00  2.5500132914040488e+00  2.5425352465612217e+00  2.5300718384898433e+00  2.5126230671899132e+00  2.4901889326614319e+00  2.4627694349043989e+00  2.4303645739188151e+00  2.3929743497046791e+00  2.3505987622619924e+00  2.3032378115907539e+00  2.2508914976909642e+00  2.1935598205626228e+00  2.1312427802057301e+00  2.0639403766202857e+00  1.9916526098062903e+00  1.9143794797637435e+00  1.8321209864926451e+00  1.7448771299929953e+00  1.6526479102647942e+00  1.5554333273080416e+00  1.4532333811227376e+00  1.3460480717088821e+00  1.2338773990664753e+00  1.1167213631955171e+00  9.9457996409600735e-01  8.6745320176794627e-01  7.3534107621133371e-01  5.9824358742616979e-01  4.5616073541245450e-01  3.0909252017018773e-01  1.5703894169936958e-01  0.0000000000000000e+00  </DataArray> 
</PointData> 
</Piece>
</UnstructuredGrid>
</VTKFile>