<?xml version="1.0"?>
<VTKFile type="UnstructuredGrid"  version="0.1"  >
<UnstructuredGrid>
<Piece  NumberOfPoints="65" NumberOfCells="64">
<Points>
<DataArray  type="Float64"  NumberOfComponents="3"  format="ascii">0 0 0  0.0625 0 0  0.125 0 0  0.1875 0 0  0.25 0 0  0.3125 0 0  0.375 0 0  0.4375 0 0  0.5 0 0  0.5625 0 0  0.625 0 0  0.6875 0 0  0.75 0 0  0.8125 0 0  0.875 0 0  0.9375 0 0  1 0 0  1.0625 0 0  1.125 0 0  1.1875 0 0  1.25 0 0  1.3125 0 0  1.375 0 0  1.4375 0 0  1.5 0 0  1.5625 0 0  1.625 0 0  1.6875 0 0  1.75 0 0  1.8125 0 0  1.875 0 0  1.9375 0 0  2 0 0  2.0625 0 0  2.125 0 0  2.1875 0 0  2.25 0 0  2.3125 0 0  2.375 0 0  2.4375 0 0  2.5 0 0  2.5625 0 0  2.625 0 0  2.6875 0 0  2.75 0 0  2.8125 0 0  2.875 0 0  2.9375 0 0  3 0 0  3.0625 0 0  3.125 0 0  3.1875 0 0  3.25 0 0  3.3125 0 0  3.375 0 0  3.4375 0 0  3.5 0 0  3.5625 0 0  3.625 0 0  3.6875 0 0  3.75 0 0  3.8125 0 0  3.875 0 0  3.9375 0 0  4 0 0  </DataArray>
</Points>
<Cells>
<DataArray  type="UInt32"  Name="connectivity"  format="ascii">0 1  1 2  2 3  3 4  4 5  5 6  6 7  7 8  8 9  9 10  10 11  11 12  12 13  13 14  14 15  15 16  16 17  17 18  18 19  19 20  20 21  21 22  22 23  23 24  24 25  25 26  26 27  27 28  28 29  29 30  30 31  31 32  32 33  33 34  34 35  35 36  36 37  37 38  38 39  39 40  40 41  41 42  42 43  43 44  44 45  45 46  46 47  47 48  48 49  49 50  50 51  51 52  52 53  53 54  54 55  55 56  56 57  57 58  58 59  59 60  60 61  61 62  62 63  63 64  </DataArray>
<DataArray  type="UInt32"  Name="offsets"  format="ascii">2 4 6 8 10 12 14 16 18 20 22 24 26 28 30 32 34 36 38 40 42 44 46 48 50 52 54 56 58 60 62 64 66 68 70 72 74 76 78 80 82 84 86 88 90 92 94 96 98 100 102 104 106 108 110 112 114 116 118 120 122 124 126 128 </DataArray>
<DataArray  type="UInt8"  Name="types"  format="ascii">3 3 3 3 3 3 3 3 3 3 3 3 3 3 3 3 3 3 3 3 3 3 3 3 3 3 3 3 3 3 3 3 3 3 3 3 3 3 3 3 3 3 3 3 3 3 3 3 3 3 3 3 3 3 3 3 3 3 3 3 3 3 3 3 </DataArray>
</Cells>
<PointData  Scalars="U"> 
<DataArray  type="Float64"  Name="U"  format="ascii">0.0000000000000000e+00  1.1179301344048151e-01  2.2003703916421599e-01  3.2473207752013755e-01  4.2587812883965431e-01  5.2347519343677706e-01  6.1752327160829901e-01  7.0802236363402116e-01  7.9497246977701619e-01  8.7837359028392603e-01  9.5822572538528439e-01  1.0345288752958610e+00  1.1072830402150189e+00  1.1764882203270786e+00  1.2421444158016870e+00  1.3042516267941779e+00  1.3628098534459268e+00  1.4178190958846888e+00  1.4692793542249163e+00  1.5171906285680514e+00  1.5615529190027915e+00  1.6023662256053177e+00  1.6396305484394926e+00  1.6733458875570075e+00  1.7035122429974994e+00  1.7301296147886136e+00  1.7531980029460235e+00  1.7727174074734038e+00  1.7886878283623522e+00  1.8011092655922654e+00  1.8099817191301684e+00  1.8153051889304941e+00  1.8170796749348237e+00  1.8153051770715813e+00  1.8099816952556924e+00  1.8011092293882096e+00  1.7886877793559066e+00  1.7727173450308473e+00  1.7531979262699413e+00  1.7301295229144809e+00  1.7035121347896800e+00  1.6733457617042138e+00  1.6396304034497673e+00  1.6023660598006084e+00  1.5615527305131860e+00  1.5171904153257698e+00  1.4692791139581349e+00  1.4178188261113098e+00  1.3628095514673830e+00  1.3042512896893961e+00  1.2421440404213180e+00  1.1764878032881174e+00  1.1072825778959423e+00  1.0345283638324103e+00  9.5822516066702323e-01  8.7837296795170872e-01  7.9497178522149958e-01  7.0802161199535252e-01  6.1752244777711285e-01  5.2347429205662765e-01  4.2587714431100987e-01  3.2473100400605409e-01  2.2003587059780250e-01  1.1179174353426113e-01  -1.3777427393716443e-06  </DataArray> 
</PointData> 
</Piece>
</UnstructuredGrid>
</VTKFile>