<?xml version="1.0"?>
<VTKFile type="UnstructuredGrid"  version="0.1"  >
<UnstructuredGrid>
<Piece  NumberOfPoints="65" NumberOfCells="64">
<Points>
<DataArray  type="Float64"  NumberOfComponents="3"  format="ascii">0 0 0  0.0625 0 0  0.125 0 0  0.1875 0 0  0.25 0 0  0.3125 0 0  0.375 0 0  0.4375 0 0  0.5 0 0  0.5625 0 0  0.625 0 0  0.6875 0 0  0.75 0 0  0.8125 0 0  0.875 0 0  0.9375 0 0  1 0 0  1.0625 0 0  1.125 0 0  1.1875 0 0  1.25 0 0  1.3125 0 0  1.375 0 0  1.4375 0 0  1.5 0 0  1.5625 0 0  1.625 0 0  1.6875 0 0  1.75 0 0  1.8125 0 0  1.875 0 0  1.9375 0 0  2 0 0  2.0625 0 0  2.125 0 0  2.1875 0 0  2.25 0 0  2.3125 0 0  2.375 0 0  2.4375 0 0  2.5 0 0  2.5625 0 0  2.625 0 0  2.6875 0 0  2.75 0 0  2.8125 0 0  2.875 0 0  2.9375 0 0  3 0 0  3.0625 0 0  3.125 0 0  3.1875 0 0  3.25 0 0  3.3125 0 0  3.375 0 0  3.4375 0 0  3.5 0 0  3.5625 0 0  3.625 0 0  3.6875 0 0  3.75 0 0  3.8125 0 0  3.875 0 0  3.9375 0 0  4 0 0  </DataArray>
</Points>
<Cells>
<DataArray  type="UInt32"  Name="connectivity"  format="ascii">0 1  1 2  2 3  3 4  4 5  5 6  6 7  7 8  8 9  9 10  10 11  11 12  12 13  13 14  14 15  15 16  16 17  17 18  18 19  19 20  20 21  21 22  22 23  23 24  24 25  25 26  26 27  27 28  28 29  29 30  30 31  31 32  32 33  33 34  34 35  35 36  36 37  37 38  38 39  39 40  40 41  41 42  42 43  43 44  44 45  45 46  46 47  47 48  48 49  49 50  50 51  51 52  52 53  53 54  54 55  55 56  56 57  57 58  58 59  59 60  60 61  61 62  62 63  63 64  </DataArray>
<DataArray  type="UInt32"  Name="offsets"  format="ascii">2 4 6 8 10 12 14 16 18 20 22 24 26 28 30 32 34 36 38 40 42 44 46 48 50 52 54 56 58 60 62 64 66 68 70 72 74 76 78 80 82 84 86 88 90 92 94 96 98 100 102 104 106 108 110 112 114 116 118 120 122 124 126 128 </DataArray>
<DataArray  type="UInt8"  Name="types"  format="ascii">3 3 3 3 3 3 3 3 3 3 3 3 3 3 3 3 3 3 3 3 3 3 3 3 3 3 3 3 3 3 3 3 3 3 3 3 3 3 3 3 3 3 3 3 3 3 3 3 3 3 3 3 3 3 3 3 3 3 3 3 3 3 3 3 </DataArray>
</Cells>
<PointData  Scalars="U"> 
<DataArray  type="Float64"  Name="U"  format="ascii">0.0000000000000000e+00  -6.8340152721697175e-02  -1.3853106065963156e-01  -2.1023825637995036e-01  -2.8312980196712839e-01  -3.5687757201812098e-01  -4.3115851841485348e-01  -5.0565591120022313e-01  -5.8006055035043991e-01  -6.5407194378968736e-01  -7.2739944761152897e-01  -7.9976336513230839e-01  -8.7089600208013673e-01  -9.4054267589280260e-01  -1.0084626777326129e+00  -1.0744301863997279e+00  -1.1382351338132652e+00  -1.1996840221087575e+00  -1.2586006926519102e+00  -1.3148270473761599e+00  -1.3682237228039158e+00  -1.4186707169022232e+00  -1.4660679685519988e+00  -1.5103358888809573e+00  -1.5514158430348253e+00  -1.5892705801563765e+00  -1.6238846084301879e+00  -1.6552645110611075e+00  -1.6834391980197765e+00  -1.7084600873468432e+00  -1.7304012087999938e+00  -1.7493592216981801e+00  -1.7654533380103214e+00  -1.7788251410960287e+00  -1.7896382900768999e+00  -1.7980780996390120e+00  -1.8043509851764763e+00  -1.8086837636125315e+00  -1.8113228010016800e+00  -1.8125329991385757e+00  -1.8125966148818964e+00  -1.8118119077392878e+00  -1.8104916134366971e+00  -1.8089612436849929e+00  -1.8075572151205681e+00  -1.8066248133858707e+00  -1.8065160014719059e+00  -1.8075870847003248e+00  -1.8101962480032245e+00  -1.8147009843842608e+00  -1.8214554365318325e+00  -1.8308076764196859e+00  -1.8430969502894137e+00  -1.8586509185842557e+00  -1.8777829221218865e+00  -1.9007893069922572e+00  -1.9279468412927170e+00  -1.9595102568276064e+00  -1.9957099482789329e+00  -2.0367498610902928e+00  -2.0828055974062258e+00  -2.1340227668988940e+00  -2.1905156062350737e+00  -2.2523658873464507e+00  -2.3196221306367684e+00  </DataArray> 
</PointData> 
</Piece>
</UnstructuredGrid>
</VTKFile>