<?xml version="1.0"?>
<VTKFile type="UnstructuredGrid"  version="0.1"  >
<UnstructuredGrid>
<Piece  NumberOfPoints="65" NumberOfCells="64">
<Points>
<DataArray  type="Float64"  NumberOfComponents="3"  format="ascii">0 0 0  0.0625 0 0  0.125 0 0  0.1875 0 0  0.25 0 0  0.3125 0 0  0.375 0 0  0.4375 0 0  0.5 0 0  0.5625 0 0  0.625 0 0  0.6875 0 0  0.75 0 0  0.8125 0 0  0.875 0 0  0.9375 0 0  1 0 0  1.0625 0 0  1.125 0 0  1.1875 0 0  1.25 0 0  1.3125 0 0  1.375 0 0  1.4375 0 0  1.5 0 0  1.5625 0 0  1.625 0 0  1.6875 0 0  1.75 0 0  1.8125 0 0  1.875 0 0  1.9375 0 0  2 0 0  2.0625 0 0  2.125 0 0  2.1875 0 0  2.25 0 0  2.3125 0 0  2.375 0 0  2.4375 0 0  2.5 0 0  2.5625 0 0  2.625 0 0  2.6875 0 0  2.75 0 0  2.8125 0 0  2.875 0 0  2.9375 0 0  3 0 0  3.0625 0 0  3.125 0 0  3.1875 0 0  3.25 0 0  3.3125 0 0  3.375 0 0  3.4375 0 0  3.5 0 0  3.5625 0 0  3.625 0 0  3.6875 0 0  3.75 0 0  3.8125 0 0  3.875 0 0  3.9375 0 0  4 0 0  </DataArray>
</Points>
<Cells>
<DataArray  type="UInt32"  Name="connectivity"  format="ascii">0 1  1 2  2 3  3 4  4 5  5 6  6 7  7 8  8 9  9 10  10 11  11 12  12 13  13 14  14 15  15 16  16 17  17 18  18 19  19 20  20 21  21 22  22 23  23 24  24 25  25 26  26 27  27 28  28 29  29 30  30 31  31 32  32 33  33 34  34 35  35 36  36 37  37 38  38 39  39 40  40 41  41 42  42 43  43 44  44 45  45 46  46 47  47 48  48 49  49 50  50 51  51 52  52 53  53 54  54 55  55 56  56 57  57 58  58 59  59 60  60 61  61 62  62 63  63 64  </DataArray>
<DataArray  type="UInt32"  Name="offsets"  format="ascii">2 4 6 8 10 12 14 16 18 20 22 24 26 28 30 32 34 36 38 40 42 44 46 48 50 52 54 56 58 60 62 64 66 68 70 72 74 76 78 80 82 84 86 88 90 92 94 96 98 100 102 104 106 108 110 112 114 116 118 120 122 124 126 128 </DataArray>
<DataArray  type="UInt8"  Name="types"  format="ascii">3 3 3 3 3 3 3 3 3 3 3 3 3 3 3 3 3 3 3 3 3 3 3 3 3 3 3 3 3 3 3 3 3 3 3 3 3 3 3 3 3 3 3 3 3 3 3 3 3 3 3 3 3 3 3 3 3 3 3 3 3 3 3 3 </DataArray>
</Cells>
<PointData  Scalars="U"> 
<DataArray  type="Float64"  Name="U"  format="ascii">0.0000000000000000e+00  -7.7400995337069158e-03  -1.5955439453064400e-02  -2.4591455226765247e-02  -3.3590473340540605e-02  -4.2892523964913581e-02  -5.2436181001793182e-02  -6.2159344481730133e-02  -7.1999996658458812e-02  -8.1896908480040650e-02  -9.1790269483842168e-02  -1.0162224211271280e-01  -1.1133743276934500e-01  -1.2088328293903665e-01  -1.3021037592958612e-01  -1.3927266418560463e-01  -1.4802763112391668e-01  -1.5643638777336244e-01  -1.6446371597264611e-01  -1.7207807208102890e-01  -1.7925155691359468e-01  -1.8595986506475942e-01  -1.9218222306940630e-01  -1.9790132513533759e-01  -2.0310327760213889e-01  -2.0777755656132529e-01  -2.1191698759545641e-01  -2.1551775533266071e-01  -2.1857944301511772e-01  -2.2110510927694738e-01  -2.2310140573015791e-01  -2.2457873177918664e-01  -2.2555143043320466e-01  -2.2603802365002962e-01  -2.2606147962917864e-01  -2.2564951001037140e-01  -2.2483488879963293e-01  -2.2365578062799629e-01  -2.2215606719684583e-01  -2.2038565506643473e-01  -2.1840074749521354e-01  -2.1626405643698876e-01  -2.1404492863187816e-01  -2.1181936666203038e-01  -2.0966990642296501e-01  -2.0768531998314996e-01  -2.0596012985351250e-01  -2.0459388749207597e-01  -2.0369019342280839e-01  -2.0335545351952286e-01  -2.0369734382699234e-01  -2.0482299255279252e-01  -2.0683686593178943e-01  -2.0983841258425759e-01  -2.1391952176077325e-01  -2.1916176113355076e-01  -2.2563357281377980e-01  -2.3338750591609558e-01  -2.4245752989599156e-01  -2.5285659467863286e-01  -2.6457451582569125e-01  -2.7757640343646578e-01  -2.9180163544756926e-01  -3.0716348828312084e-01  -3.2354957270544349e-01  </DataArray> 
</PointData> 
</Piece>
</UnstructuredGrid>
</VTKFile>