<?xml version="1.0"?>
<VTKFile type="UnstructuredGrid"  version="0.1"  >
<UnstructuredGrid>
<Piece  NumberOfPoints="65" NumberOfCells="64">
<Points>
<DataArray  type="Float64"  NumberOfComponents="3"  format="ascii">0 0 0  0.0625 0 0  0.125 0 0  0.1875 0 0  0.25 0 0  0.3125 0 0  0.375 0 0  0.4375 0 0  0.5 0 0  0.5625 0 0  0.625 0 0  0.6875 0 0  0.75 0 0  0.8125 0 0  0.875 0 0  0.9375 0 0  1 0 0  1.0625 0 0  1.125 0 0  1.1875 0 0  1.25 0 0  1.3125 0 0  1.375 0 0  1.4375 0 0  1.5 0 0  1.5625 0 0  1.625 0 0  1.6875 0 0  1.75 0 0  1.8125 0 0  1.875 0 0  1.9375 0 0  2 0 0  2.0625 0 0  2.125 0 0  2.1875 0 0  2.25 0 0  2.3125 0 0  2.375 0 0  2.4375 0 0  2.5 0 0  2.5625 0 0  2.625 0 0  2.6875 0 0  2.75 0 0  2.8125 0 0  2.875 0 0  2.9375 0 0  3 0 0  3.0625 0 0  3.125 0 0  3.1875 0 0  3.25 0 0  3.3125 0 0  3.375 0 0  3.4375 0 0  3.5 0 0  3.5625 0 0  3.625 0 0  3.6875 0 0  3.75 0 0  3.8125 0 0  3.875 0 0  3.9375 0 0  4 0 0  </DataArray>
</Points>
<Cells>
<DataArray  type="UInt32"  Name="connectivity"  format="ascii">0 1  1 2  2 3  3 4  4 5  5 6  6 7  7 8  8 9  9 10  10 11  11 12  12 13  13 14  14 15  15 16  16 17  17 18  18 19  19 20  20 21  21 22  22 23  23 24  24 25  25 26  26 27  27 28  28 29  29 30  30 31  31 32  32 33  33 34  34 35  35 36  36 37  37 38  38 39  39 40  40 41  41 42  42 43  43 44  44 45  45 46  46 47  47 48  48 49  49 50  50 51  51 52  52 53  53 54  54 55  55 56  56 57  57 58  58 59  59 60  60 61  61 62  62 63  63 64  </DataArray>
<DataArray  type="UInt32"  Name="offsets"  format="ascii">2 4 6 8 10 12 14 16 18 20 22 24 26 28 30 32 34 36 38 40 42 44 46 48 50 52 54 56 58 60 62 64 66 68 70 72 74 76 78 80 82 84 86 88 90 92 94 96 98 100 102 104 106 108 110 112 114 116 118 120 122 124 126 128 </DataArray>
<DataArray  type="UInt8"  Name="types"  format="ascii">3 3 3 3 3 3 3 3 3 3 3 3 3 3 3 3 3 3 3 3 3 3 3 3 3 3 3 3 3 3 3 3 3 3 3 3 3 3 3 3 3 3 3 3 3 3 3 3 3 3 3 3 3 3 3 3 3 3 3 3 3 3 3 3 </DataArray>
</Cells>
<PointData  Scalars="U"> 
<DataArray  type="Float64"  Name="U"  format="ascii">0.0000000000000000e+00  1.6202381178836242e-01  3.1890400826044957e-01  4.7064058972457939e-01  6.1723355646525468e-01  7.5868290874412980e-01  8.9498864680103718e-01  1.0261507708550592e+00  1.1521692811056343e+00  1.2730441777336843e+00  1.3887754609027494e+00  1.4993631307601221e+00  1.6048071874379659e+00  1.7051076310544111e+00  1.8002644617146226e+00  1.8902776795118215e+00  1.9751472845282612e+00  2.0548732768361515e+00  2.1294556564985210e+00  2.1988944235700107e+00  2.2631895780976086e+00  2.3223411201212971e+00  2.3763490496746345e+00  2.4252133667852496e+00  2.4689340714752568e+00  2.5075111637615843e+00  2.5409446436562115e+00  2.5692345111663180e+00  2.5923807662943359e+00  2.6103834090379086e+00  2.6232424393897431e+00  2.6309578573373646e+00  2.6335296628627693e+00  2.6309578559419537e+00  2.6232424365443534e+00  2.6103834046321519e+00  2.5923807601594837e+00  2.5692345030715220e+00  2.5409446333034462e+00  2.5075111507793042e+00  2.4689340554107608e+00  2.4252133470957395e+00  2.3763490257169702e+00  2.3223410911404470e+00  2.2631895432138087e+00  2.1988943817646565e+00  2.1294556065988250e+00  2.0548732174986286e+00  1.9751472142211033e+00  1.8902775964962646e+00  1.8002643640254201e+00  1.7051075164795539e+00  1.6048070534978212e+00  1.4993629746861830e+00  1.3887752796162143e+00  1.2730439678241210e+00  1.1521690388099983e+00  1.0261504920373594e+00  8.9498832693297536e-01  7.5868254288704229e-01  6.1723313925371082e-01  4.7064011535199557e-01  3.1890347046708545e-01  1.6202320385206287e-01  -6.8526995339135610e-07  </DataArray> 
</PointData> 
</Piece>
</UnstructuredGrid>
</VTKFile>