<?xml version="1.0"?>
<VTKFile type="UnstructuredGrid"  version="0.1"  >
<UnstructuredGrid>
<Piece  NumberOfPoints="65" NumberOfCells="64">
<Points>
<DataArray  type="Float64"  NumberOfComponents="3"  format="ascii">0 0 0  0.0625 0 0  0.125 0 0  0.1875 0 0  0.25 0 0  0.3125 0 0  0.375 0 0  0.4375 0 0  0.5 0 0  0.5625 0 0  0.625 0 0  0.6875 0 0  0.75 0 0  0.8125 0 0  0.875 0 0  0.9375 0 0  1 0 0  1.0625 0 0  1.125 0 0  1.1875 0 0  1.25 0 0  1.3125 0 0  1.375 0 0  1.4375 0 0  1.5 0 0  1.5625 0 0  1.625 0 0  1.6875 0 0  1.75 0 0  1.8125 0 0  1.875 0 0  1.9375 0 0  2 0 0  2.0625 0 0  2.125 0 0  2.1875 0 0  2.25 0 0  2.3125 0 0  2.375 0 0  2.4375 0 0  2.5 0 0  2.5625 0 0  2.625 0 0  2.6875 0 0  2.75 0 0  2.8125 0 0  2.875 0 0  2.9375 0 0  3 0 0  3.0625 0 0  3.125 0 0  3.1875 0 0  3.25 0 0  3.3125 0 0  3.375 0 0  3.4375 0 0  3.5 0 0  3.5625 0 0  3.625 0 0  3.6875 0 0  3.75 0 0  3.8125 0 0  3.875 0 0  3.9375 0 0  4 0 0  </DataArray>
</Points>
<Cells>
<DataArray  type="UInt32"  Name="connectivity"  format="ascii">0 1  1 2  2 3  3 4  4 5  5 6  6 7  7 8  8 9  9 10  10 11  11 12  12 13  13 14  14 15  15 16  16 17  17 18  18 19  19 20  20 21  21 22  22 23  23 24  24 25  25 26  26 27  27 28  28 29  29 30  30 31  31 32  32 33  33 34  34 35  35 36  36 37  37 38  38 39  39 40  40 41  41 42  42 43  43 44  44 45  45 46  46 47  47 48  48 49  49 50  50 51  51 52  52 53  53 54  54 55  55 56  56 57  57 58  58 59  59 60  60 61  61 62  62 63  63 64  </DataArray>
<DataArray  type="UInt32"  Name="offsets"  format="ascii">2 4 6 8 10 12 14 16 18 20 22 24 26 28 30 32 34 36 38 40 42 44 46 48 50 52 54 56 58 60 62 64 66 68 70 72 74 76 78 80 82 84 86 88 90 92 94 96 98 100 102 104 106 108 110 112 114 116 118 120 122 124 126 128 </DataArray>
<DataArray  type="UInt8"  Name="types"  format="ascii">3 3 3 3 3 3 3 3 3 3 3 3 3 3 3 3 3 3 3 3 3 3 3 3 3 3 3 3 3 3 3 3 3 3 3 3 3 3 3 3 3 3 3 3 3 3 3 3 3 3 3 3 3 3 3 3 3 3 3 3 3 3 3 3 </DataArray>
</Cells>
<PointData  Scalars="U"> 
<DataArray  type="Float64"  Name="U"  format="ascii">0.0000000000000000e+00  -7.2383604616509459e-02  -1.4627372980018918e-01  -2.2136538011450110e-01  -2.9735585250979135e-01  -3.7394589992072685e-01  -4.5084088234888664e-01  -5.2775190134033656e-01  -6.0439691395154083e-01  -6.8050182251205904e-01  -7.5580153672979378e-01  -8.3004100493364319e-01  -9.0297621149802998e-01  -9.7437513773239404e-01  -1.0440186837348817e+00  -1.1117015488922350e+00  -1.1772330688473382e+00  -1.2404380068435381e+00  -1.3011572973839900e+00  -1.3592487401104136e+00  -1.4145876417067080e+00  -1.4670674034695819e+00  -1.5166000519642535e+00  -1.5631167099048906e+00  -1.6065680040763055e+00  -1.6469244067577549e+00  -1.6841765067365104e+00  -1.7183352056254506e+00  -1.7494318348444544e+00  -1.7775181883105817e+00  -1.8026664656284193e+00  -1.8249691204014340e+00  -1.8445386082190929e+00  -1.8615070289332301e+00  -1.8760256580390897e+00  -1.8882643623376236e+00  -1.8984108955885848e+00  -1.9066700705775903e+00  -1.9132628049189542e+00  -1.9184250389992501e+00  -1.9224065257284335e+00  -1.9254694931948100e+00  -1.9278871829004391e+00  -1.9299422679626199e+00  -1.9319251574777196e+00  -1.9341321951238069e+00  -1.9368637619923286e+00  -1.9404222955470307e+00  -1.9451102384686345e+00  -1.9512279329130608e+00  -1.9590714773456785e+00  -1.9689305645711361e+00  -1.9810863208169869e+00  -1.9958091667117839e+00  -2.0133567216911374e+00  -2.0339717737403320e+00  -2.0578803364177025e+00  -2.0852898147843653e+00  -2.1163873011861298e+00  -2.1513380207935868e+00  -2.1902839454159171e+00  -2.2333425923806516e+00  -2.2806060232410919e+00  -2.3321400547685935e+00  -2.3879836921484068e+00  </DataArray> 
</PointData> 
</Piece>
</UnstructuredGrid>
</VTKFile>