<?xml version="1.0"?>
<VTKFile type="UnstructuredGrid"  version="0.1"  >
<UnstructuredGrid>
<Piece  NumberOfPoints="65" NumberOfCells="64">
<Points>
<DataArray  type="Float64"  NumberOfComponents="3"  format="ascii">0 0 0  0.0625 0 0  0.125 0 0  0.1875 0 0  0.25 0 0  0.3125 0 0  0.375 0 0  0.4375 0 0  0.5 0 0  0.5625 0 0  0.625 0 0  0.6875 0 0  0.75 0 0  0.8125 0 0  0.875 0 0  0.9375 0 0  1 0 0  1.0625 0 0  1.125 0 0  1.1875 0 0  1.25 0 0  1.3125 0 0  1.375 0 0  1.4375 0 0  1.5 0 0  1.5625 0 0  1.625 0 0  1.6875 0 0  1.75 0 0  1.8125 0 0  1.875 0 0  1.9375 0 0  2 0 0  2.0625 0 0  2.125 0 0  2.1875 0 0  2.25 0 0  2.3125 0 0  2.375 0 0  2.4375 0 0  2.5 0 0  2.5625 0 0  2.625 0 0  2.6875 0 0  2.75 0 0  2.8125 0 0  2.875 0 0  2.9375 0 0  3 0 0  3.0625 0 0  3.125 0 0  3.1875 0 0  3.25 0 0  3.3125 0 0  3.375 0 0  3.4375 0 0  3.5 0 0  3.5625 0 0  3.625 0 0  3.6875 0 0  3.75 0 0  3.8125 0 0  3.875 0 0  3.9375 0 0  4 0 0  </DataArray>
</Points>
<Cells>
<DataArray  type="UInt32"  Name="connectivity"  format="ascii">0 1  1 2  2 3  3 4  4 5  5 6  6 7  7 8  8 9  9 10  10 11  11 12  12 13  13 14  14 15  15 16  16 17  17 18  18 19  19 20  20 21  21 22  22 23  23 24  24 25  25 26  26 27  27 28  28 29  29 30  30 31  31 32  32 33  33 34  34 35  35 36  36 37  37 38  38 39  39 40  40 41  41 42  42 43  43 44  44 45  45 46  46 47  47 48  48 49  49 50  50 51  51 52  52 53  53 54  54 55  55 56  56 57  57 58  58 59  59 60  60 61  61 62  62 63  63 64  </DataArray>
<DataArray  type="UInt32"  Name="offsets"  format="ascii">2 4 6 8 10 12 14 16 18 20 22 24 26 28 30 32 34 36 38 40 42 44 46 48 50 52 54 56 58 60 62 64 66 68 70 72 74 76 78 80 82 84 86 88 90 92 94 96 98 100 102 104 106 108 110 112 114 116 118 120 122 124 126 128 </DataArray>
<DataArray  type="UInt8"  Name="types"  format="ascii">3 3 3 3 3 3 3 3 3 3 3 3 3 3 3 3 3 3 3 3 3 3 3 3 3 3 3 3 3 3 3 3 3 3 3 3 3 3 3 3 3 3 3 3 3 3 3 3 3 3 3 3 3 3 3 3 3 3 3 3 3 3 3 3 </DataArray>
</Cells>
<PointData  Scalars="U"> 
<DataArray  type="Float64"  Name="U"  format="ascii">0.0000000000000000e+00  -4.7718207905203622e-03  -1.5017432546518127e-02  -2.9900055810325028e-02  -4.8614450617182690e-02  -7.0400480387801861e-02  -9.4554167762844837e-02  -1.2043579354393777e-01  -1.4747485182358439e-01  -1.7517192916983670e-01  -2.0309779488957744e-01  -2.3089015267855550e-01  -2.5824860137688405e-01  -2.8492838426273087e-01  -3.1073348089405994e-01  -3.3550952702797493e-01  -3.5913695302693865e-01  -3.8152462530725589e-01  -4.0260417210882560e-01  -4.2232508373578653e-01  -4.4065060400010225e-01  -4.5755437586850217e-01  -4.7301776947177931e-01  -4.8702780208640989e-01  -4.9957555395525755e-01  -5.1065498723737068e-01  -5.2026208468323132e-01  -5.2839423718379286e-01  -5.3504982325981398e-01  -5.4022793771126332e-01  -5.4392824057380151e-01  -5.4615091133504101e-01  -5.4689670761381393e-01  -5.4616714313708215e-01  -5.4396481808183172e-01  -5.4029395709212791e-01  -5.3516123799585380e-01  -5.2857702873270940e-01  -5.2055719207519902e-01  -5.1112566721300234e-01  -5.0031809238366853e-01  -4.8818678923835329e-01  -4.7480747998991718e-01  -4.6028814097952991e-01  -4.4478039501639033e-01  -4.2849378947161321e-01  -4.1171317484746550e-01  -3.9481916717878912e-01  -3.7831133048997223e-01  -3.6283324817310680e-01  -3.4919807992550067e-01  -3.3841256603712833e-01  -3.3169681690518177e-01  -3.3049671668688035e-01  -3.3648550195663490e-01  -3.5155117954895126e-01  -3.7776703153665253e-01  -4.1734357655954823e-01  -4.7256199117146880e-01  -5.4569101720604363e-01  -6.3889156342114950e-01  -7.5411524334792090e-01  -8.9300463352564419e-01  -1.0568037740817975e+00  -1.2462871524335606e+00  </DataArray> 
</PointData> 
</Piece>
</UnstructuredGrid>
</VTKFile>