<?xml version="1.0"?>
<VTKFile type="UnstructuredGrid"  version="0.1"  >
<UnstructuredGrid>
<Piece  NumberOfPoints="65" NumberOfCells="64">
<Points>
<DataArray  type="Float64"  NumberOfComponents="3"  format="ascii">0 0 0  0.0625 0 0  0.125 0 0  0.1875 0 0  0.25 0 0  0.3125 0 0  0.375 0 0  0.4375 0 0  0.5 0 0  0.5625 0 0  0.625 0 0  0.6875 0 0  0.75 0 0  0.8125 0 0  0.875 0 0  0.9375 0 0  1 0 0  1.0625 0 0  1.125 0 0  1.1875 0 0  1.25 0 0  1.3125 0 0  1.375 0 0  1.4375 0 0  1.5 0 0  1.5625 0 0  1.625 0 0  1.6875 0 0  1.75 0 0  1.8125 0 0  1.875 0 0  1.9375 0 0  2 0 0  2.0625 0 0  2.125 0 0  2.1875 0 0  2.25 0 0  2.3125 0 0  2.375 0 0  2.4375 0 0  2.5 0 0  2.5625 0 0  2.625 0 0  2.6875 0 0  2.75 0 0  2.8125 0 0  2.875 0 0  2.9375 0 0  3 0 0  3.0625 0 0  3.125 0 0  3.1875 0 0  3.25 0 0  3.3125 0 0  3.375 0 0  3.4375 0 0  3.5 0 0  3.5625 0 0  3.625 0 0  3.6875 0 0  3.75 0 0  3.8125 0 0  3.875 0 0  3.9375 0 0  4 0 0  </DataArray>
</Points>
<Cells>
<DataArray  type="UInt32"  Name="connectivity"  format="ascii">0 1  1 2  2 3  3 4  4 5  5 6  6 7  7 8  8 9  9 10  10 11  11 12  12 13  13 14  14 15  15 16  16 17  17 18  18 19  19 20  20 21  21 22  22 23  23 24  24 25  25 26  26 27  27 28  28 29  29 30  30 31  31 32  32 33  33 34  34 35  35 36  36 37  37 38  38 39  39 40  40 41  41 42  42 43  43 44  44 45  45 46  46 47  47 48  48 49  49 50  50 51  51 52  52 53  53 54  54 55  55 56  56 57  57 58  58 59  59 60  60 61  61 62  62 63  63 64  </DataArray>
<DataArray  type="UInt32"  Name="offsets"  format="ascii">2 4 6 8 10 12 14 16 18 20 22 24 26 28 30 32 34 36 38 40 42 44 46 48 50 52 54 56 58 60 62 64 66 68 70 72 74 76 78 80 82 84 86 88 90 92 94 96 98 100 102 104 106 108 110 112 114 116 118 120 122 124 126 128 </DataArray>
<DataArray  type="UInt8"  Name="types"  format="ascii">3 3 3 3 3 3 3 3 3 3 3 3 3 3 3 3 3 3 3 3 3 3 3 3 3 3 3 3 3 3 3 3 3 3 3 3 3 3 3 3 3 3 3 3 3 3 3 3 3 3 3 3 3 3 3 3 3 3 3 3 3 3 3 3 </DataArray>
</Cells>
<PointData  Scalars="U"> 
<DataArray  type="Float64"  Name="U"  format="ascii">0.0000000000000000e+00  1.7725460958456490e-01  3.4888208681907745e-01  5.1488243198729544e-01  6.7525564534748750e-01  8.3000172713376208e-01  9.7912067755744947e-01  1.1226124968085192e+00  1.2604771850570140e+00  1.3927147424544881e+00  1.5193251691354288e+00  1.6403084652186517e+00  1.7556646308086590e+00  1.8653936659969401e+00  1.9694955708632258e+00  2.0679703454766623e+00  2.1608179898969220e+00  2.2480385041752307e+00  2.3296318883553209e+00  2.4055981424742954e+00  2.4759372665634132e+00  2.5406492606487867e+00  2.5997341247519983e+00  2.6531918588906289e+00  2.7010224630787083e+00  2.7432259373270749e+00  2.7798022816436636e+00  2.8107514960336961e+00  2.8360735804998014e+00  2.8557685350420341e+00  2.8698363596578145e+00  2.8782770543417713e+00  2.8810906190854850e+00  2.8782770538771314e+00  2.8698363587010047e+00  2.8557685335369407e+00  2.8360735783595983e+00  2.8107514931376176e+00  2.7798022778326437e+00  2.7432259323981918e+00  2.7010224567783729e+00  2.6531918509064614e+00  2.5997341147033071e+00  2.5406492480755904e+00  2.4759372509139341e+00  2.4055981230908650e+00  2.3296318644586518e+00  2.2480384748470308e+00  2.1608179540608381e+00  2.0679703018775850e+00  1.9694955180449978e+00  1.8653936022785651e+00  1.7556645542591354e+00  1.6403083736306101e+00  1.5193250599977781e+00  1.3927146129243482e+00  1.2604770319312331e+00  1.1226123164951332e+00  9.7912046604748371e-01  8.3000147997380591e-01  6.7525535761351829e-01  5.1488209826024478e-01  3.4888170116265915e-01  1.7725416552589479e-01  -5.0948645933276680e-07  </DataArray> 
</PointData> 
</Piece>
</UnstructuredGrid>
</VTKFile>