<?xml version="1.0"?>
<VTKFile type="UnstructuredGrid"  version="0.1"  >
<UnstructuredGrid>
<Piece  NumberOfPoints="65" NumberOfCells="64">
<Points>
<DataArray  type="Float64"  NumberOfComponents="3"  format="ascii">0 0 0  0.0625 0 0  0.125 0 0  0.1875 0 0  0.25 0 0  0.3125 0 0  0.375 0 0  0.4375 0 0  0.5 0 0  0.5625 0 0  0.625 0 0  0.6875 0 0  0.75 0 0  0.8125 0 0  0.875 0 0  0.9375 0 0  1 0 0  1.0625 0 0  1.125 0 0  1.1875 0 0  1.25 0 0  1.3125 0 0  1.375 0 0  1.4375 0 0  1.5 0 0  1.5625 0 0  1.625 0 0  1.6875 0 0  1.75 0 0  1.8125 0 0  1.875 0 0  1.9375 0 0  2 0 0  2.0625 0 0  2.125 0 0  2.1875 0 0  2.25 0 0  2.3125 0 0  2.375 0 0  2.4375 0 0  2.5 0 0  2.5625 0 0  2.625 0 0  2.6875 0 0  2.75 0 0  2.8125 0 0  2.875 0 0  2.9375 0 0  3 0 0  3.0625 0 0  3.125 0 0  3.1875 0 0  3.25 0 0  3.3125 0 0  3.375 0 0  3.4375 0 0  3.5 0 0  3.5625 0 0  3.625 0 0  3.6875 0 0  3.75 0 0  3.8125 0 0  3.875 0 0  3.9375 0 0  4 0 0  </DataArray>
</Points>
<Cells>
<DataArray  type="UInt32"  Name="connectivity"  format="ascii">0 1  1 2  2 3  3 4  4 5  5 6  6 7  7 8  8 9  9 10  10 11  11 12  12 13  13 14  14 15  15 16  16 17  17 18  18 19  19 20  20 21  21 22  22 23  23 24  24 25  25 26  26 27  27 28  28 29  29 30  30 31  31 32  32 33  33 34  34 35  35 36  36 37  37 38  38 39  39 40  40 41  41 42  42 43  43 44  44 45  45 46  46 47  47 48  48 49  49 50  50 51  51 52  52 53  53 54  54 55  55 56  56 57  57 58  58 59  59 60  60 61  61 62  62 63  63 64  </DataArray>
<DataArray  type="UInt32"  Name="offsets"  format="ascii">2 4 6 8 10 12 14 16 18 20 22 24 26 28 30 32 34 36 38 40 42 44 46 48 50 52 54 56 58 60 62 64 66 68 70 72 74 76 78 80 82 84 86 88 90 92 94 96 98 100 102 104 106 108 110 112 114 116 118 120 122 124 126 128 </DataArray>
<DataArray  type="UInt8"  Name="types"  format="ascii">3 3 3 3 3 3 3 3 3 3 3 3 3 3 3 3 3 3 3 3 3 3 3 3 3 3 3 3 3 3 3 3 3 3 3 3 3 3 3 3 3 3 3 3 3 3 3 3 3 3 3 3 3 3 3 3 3 3 3 3 3 3 3 3 </DataArray>
</Cells>
<PointData  Scalars="U"> 
<DataArray  type="Float64"  Name="U"  format="ascii">0.0000000000000000e+00  2.1131895564597469e-01  4.1592937203156916e-01  6.1383124935769195e-01  8.0502458779719910e-01  9.8950938749756989e-01  1.1672856485835552e+00  1.3383533711597564e+00  1.5027125553130967e+00  1.6603632011151466e+00  1.8113053086242898e+00  1.9555388778876976e+00  2.0930639089431158e+00  2.2238804018204501e+00  2.3479883565431585e+00  2.4653877731294549e+00  2.5760786515933343e+00  2.6800609919454392e+00  2.7773347941937780e+00  2.8679000583443095e+00  2.9517567844014208e+00  3.0289049723683057e+00  3.0993446222472647e+00  3.1630757340399356e+00  3.2200983077474654e+00  3.2704123433706540e+00  3.3140178409100440e+00  3.3509148003659961e+00  3.3811032217387398e+00  3.4045831050284003e+00  3.4213544502350230e+00  3.4314172573585715e+00  3.4347715263989205e+00  3.4314172573558293e+00  3.4213544502288951e+00  3.4045831050174775e+00  3.3811032217205970e+00  3.3509148003367724e+00  3.3140178408638072e+00  3.2704123432984811e+00  3.2200983076361367e+00  3.1630757338701252e+00  3.0993446219910665e+00  3.0289049719858996e+00  2.9517567838366481e+00  2.8679000575188835e+00  2.7773347929997954e+00  2.6800609902358521e+00  2.5760786491699763e+00  2.4653877697282107e+00  2.3479883518158395e+00  2.2238803953129702e+00  2.0930639000695712e+00  1.9555388659000268e+00  1.8113052925772755e+00  1.6603631798266467e+00  1.5027125273195281e+00  1.3383533346670500e+00  1.1672856014139878e+00  9.8950932703310024e-01  8.0502451092014948e-01  6.1383115238983288e-01  4.1592925067285991e-01  2.1131880491437416e-01  -1.8582610730839305e-07  </DataArray> 
</PointData> 
</Piece>
</UnstructuredGrid>
</VTKFile>