<?xml version="1.0"?>
<VTKFile type="UnstructuredGrid"  version="0.1"  >
<UnstructuredGrid>
<Piece  NumberOfPoints="65" NumberOfCells="64">
<Points>
<DataArray  type="Float64"  NumberOfComponents="3"  format="ascii">0 0 0  0.0625 0 0  0.125 0 0  0.1875 0 0  0.25 0 0  0.3125 0 0  0.375 0 0  0.4375 0 0  0.5 0 0  0.5625 0 0  0.625 0 0  0.6875 0 0  0.75 0 0  0.8125 0 0  0.875 0 0  0.9375 0 0  1 0 0  1.0625 0 0  1.125 0 0  1.1875 0 0  1.25 0 0  1.3125 0 0  1.375 0 0  1.4375 0 0  1.5 0 0  1.5625 0 0  1.625 0 0  1.6875 0 0  1.75 0 0  1.8125 0 0  1.875 0 0  1.9375 0 0  2 0 0  2.0625 0 0  2.125 0 0  2.1875 0 0  2.25 0 0  2.3125 0 0  2.375 0 0  2.4375 0 0  2.5 0 0  2.5625 0 0  2.625 0 0  2.6875 0 0  2.75 0 0  2.8125 0 0  2.875 0 0  2.9375 0 0  3 0 0  3.0625 0 0  3.125 0 0  3.1875 0 0  3.25 0 0  3.3125 0 0  3.375 0 0  3.4375 0 0  3.5 0 0  3.5625 0 0  3.625 0 0  3.6875 0 0  3.75 0 0  3.8125 0 0  3.875 0 0  3.9375 0 0  4 0 0  </DataArray>
</Points>
<Cells>
<DataArray  type="UInt32"  Name="connectivity"  format="ascii">0 1  1 2  2 3  3 4  4 5  5 6  6 7  7 8  8 9  9 10  10 11  11 12  12 13  13 14  14 15  15 16  16 17  17 18  18 19  19 20  20 21  21 22  22 23  23 24  24 25  25 26  26 27  27 28  28 29  29 30  30 31  31 32  32 33  33 34  34 35  35 36  36 37  37 38  38 39  39 40  40 41  41 42  42 43  43 44  44 45  45 46  46 47  47 48  48 49  49 50  50 51  51 52  52 53  53 54  54 55  55 56  56 57  57 58  58 59  59 60  60 61  61 62  62 63  63 64  </DataArray>
<DataArray  type="UInt32"  Name="offsets"  format="ascii">2 4 6 8 10 12 14 16 18 20 22 24 26 28 30 32 34 36 38 40 42 44 46 48 50 52 54 56 58 60 62 64 66 68 70 72 74 76 78 80 82 84 86 88 90 92 94 96 98 100 102 104 106 108 110 112 114 116 118 120 122 124 126 128 </DataArray>
<DataArray  type="UInt8"  Name="types"  format="ascii">3 3 3 3 3 3 3 3 3 3 3 3 3 3 3 3 3 3 3 3 3 3 3 3 3 3 3 3 3 3 3 3 3 3 3 3 3 3 3 3 3 3 3 3 3 3 3 3 3 3 3 3 3 3 3 3 3 3 3 3 3 3 3 3 </DataArray>
</Cells>
<PointData  Scalars="U"> 
<DataArray  type="Float64"  Name="U"  format="ascii">0.0000000000000000e+00  1.8431563919298952e-01  3.6277998654142546e-01  5.3539304231546136e-01  7.0215480675905939e-01  8.6306528009152106e-01  1.0181244625090637e+00  1.1673323541864273e+00  1.3106889552784806e+00  1.4481942659218185e+00  1.5798482862363270e+00  1.7056510163267080e+00  1.8256024562839397e+00  1.9397026061866718e+00  2.0479514661025462e+00  2.1503490360894268e+00  2.2468953161965484e+00  2.3375903064655685e+00  2.4224340069315251e+00  2.5014264176237098e+00  2.5745675385664364e+00  2.6418573697797334e+00  2.7032959112799371e+00  2.7588831630802115e+00  2.8086191251909769e+00  2.8525037976202645e+00  2.8905371803739985e+00  2.9227192734561891e+00  2.9490500768690691e+00  2.9695295906131403e+00  2.9841578146871441e+00  2.9929347490879601e+00  2.9958603938104038e+00  2.9929347488469431e+00  2.9841578141873102e+00  2.9695295898179994e+00  2.9490500757216549e+00  2.9227192718763142e+00  2.8905371782545224e+00  2.8525037948222804e+00  2.8086191215378387e+00  2.7588831583503062e+00  2.7032959051980843e+00  2.6418573620071135e+00  2.5745675286889171e+00  2.5014264051384778e+00  2.4224339912319151e+00  2.3375902868240059e+00  2.2468952917455520e+00  2.1503490058006238e+00  2.0479514287637195e+00  1.9397025603768652e+00  1.8256024003467173e+00  1.7056509483417113e+00  1.5798482039893209e+00  1.4481941668734835e+00  1.3106888365322724e+00  1.1673322124558678e+00  1.0181242940849118e+00  8.6306508080930289e-01  7.0215457196750397e-01  5.3539276684641257e-01  3.6277966468185319e-01  1.8431526465972928e-01  -4.3408213487789162e-07  </DataArray> 
</PointData> 
</Piece>
</UnstructuredGrid>
</VTKFile>