<?xml version="1.0"?>
<VTKFile type="UnstructuredGrid"  version="0.1"  >
<UnstructuredGrid>
<Piece  NumberOfPoints="65" NumberOfCells="64">
<Points>
<DataArray  type="Float64"  NumberOfComponents="3"  format="ascii">0 0 0  0.0625 0 0  0.125 0 0  0.1875 0 0  0.25 0 0  0.3125 0 0  0.375 0 0  0.4375 0 0  0.5 0 0  0.5625 0 0  0.625 0 0  0.6875 0 0  0.75 0 0  0.8125 0 0  0.875 0 0  0.9375 0 0  1 0 0  1.0625 0 0  1.125 0 0  1.1875 0 0  1.25 0 0  1.3125 0 0  1.375 0 0  1.4375 0 0  1.5 0 0  1.5625 0 0  1.625 0 0  1.6875 0 0  1.75 0 0  1.8125 0 0  1.875 0 0  1.9375 0 0  2 0 0  2.0625 0 0  2.125 0 0  2.1875 0 0  2.25 0 0  2.3125 0 0  2.375 0 0  2.4375 0 0  2.5 0 0  2.5625 0 0  2.625 0 0  2.6875 0 0  2.75 0 0  2.8125 0 0  2.875 0 0  2.9375 0 0  3 0 0  3.0625 0 0  3.125 0 0  3.1875 0 0  3.25 0 0  3.3125 0 0  3.375 0 0  3.4375 0 0  3.5 0 0  3.5625 0 0  3.625 0 0  3.6875 0 0  3.75 0 0  3.8125 0 0  3.875 0 0  3.9375 0 0  4 0 0  </DataArray>
</Points>
<Cells>
<DataArray  type="UInt32"  Name="connectivity"  format="ascii">0 1  1 2  2 3  3 4  4 5  5 6  6 7  7 8  8 9  9 10  10 11  11 12  12 13  13 14  14 15  15 16  16 17  17 18  18 19  19 20  20 21  21 22  22 23  23 24  24 25  25 26  26 27  27 28  28 29  29 30  30 31  31 32  32 33  33 34  34 35  35 36  36 37  37 38  38 39  39 40  40 41  41 42  42 43  43 44  44 45  45 46  46 47  47 48  48 49  49 50  50 51  51 52  52 53  53 54  54 55  55 56  56 57  57 58  58 59  59 60  60 61  61 62  62 63  63 64  </DataArray>
<DataArray  type="UInt32"  Name="offsets"  format="ascii">2 4 6 8 10 12 14 16 18 20 22 24 26 28 30 32 34 36 38 40 42 44 46 48 50 52 54 56 58 60 62 64 66 68 70 72 74 76 78 80 82 84 86 88 90 92 94 96 98 100 102 104 106 108 110 112 114 116 118 120 122 124 126 128 </DataArray>
<DataArray  type="UInt8"  Name="types"  format="ascii">3 3 3 3 3 3 3 3 3 3 3 3 3 3 3 3 3 3 3 3 3 3 3 3 3 3 3 3 3 3 3 3 3 3 3 3 3 3 3 3 3 3 3 3 3 3 3 3 3 3 3 3 3 3 3 3 3 3 3 3 3 3 3 3 </DataArray>
</Cells>
<PointData  Scalars="U"> 
<DataArray  type="Float64"  Name="U"  format="ascii">0.0000000000000000e+00  -6.6639719479563209e-02  -1.3526060289168132e-01  -2.0551762827300368e-01  -2.7706840856918658e-01  -3.4957452662666222e-01  -4.2270284862884766e-01  -4.9612680936352538e-01  -5.6952766332688687e-01  -6.4259569640343683e-01  -7.1503139368409596e-01  -7.8654655986842492e-01  -8.5686538960937297e-01  -9.2572548606702232e-01  -9.9287882680755590e-01  -1.0580926769814829e+00  -1.1211504504087977e+00  -1.1818525197584862e+00  -1.2400169774092242e+00  -1.2954803487953706e+00  -1.3480982600606741e+00  -1.3977460616508637e+00  -1.4443194090713845e+00  -1.4877348014210863e+00  -1.5279300774970994e+00  -1.5648648682684907e+00  -1.5985210033620001e+00  -1.6289028679248578e+00  -1.6560377048665056e+00  -1.6799758560782034e+00  -1.7007909348368893e+00  -1.7185799202711123e+00  -1.7334631635584516e+00  -1.7455842944925462e+00  -1.7551100162597588e+00  -1.7622297757540675e+00  -1.7671552965829749e+00  -1.7701199621196684e+00  -1.7713780365718721e+00  -1.7712037130904799e+00  -1.7698899794444938e+00  -1.7677472937438548e+00  -1.7651020650856675e+00  -1.7622949368053202e+00  -1.7596788731909920e+00  -1.7576170540129683e+00  -1.7564805849598508e+00  -1.7566460359819280e+00  -1.7584928235272950e+00  -1.7624004566203824e+00  -1.7687456705714399e+00  -1.7778994757129118e+00  -1.7902241518286504e+00  -1.8060702217727929e+00  -1.8257734400722014e+00  -1.8496518339855998e+00  -1.8780028354834430e+00  -1.9111005428608512e+00  -1.9491931501659956e+00  -1.9925005813026970e+00  -2.0412123635547328e+00  -2.0954857724081748e+00  -2.1554442759663512e+00  -2.2211763030294756e+00  -2.2927343541361478e+00  </DataArray> 
</PointData> 
</Piece>
</UnstructuredGrid>
</VTKFile>