<?xml version="1.0"?>
<VTKFile type="UnstructuredGrid"  version="0.1"  >
<UnstructuredGrid>
<Piece  NumberOfPoints="65" NumberOfCells="64">
<Points>
<DataArray  type="Float64"  NumberOfComponents="3"  format="ascii">0 0 0  0.0625 0 0  0.125 0 0  0.1875 0 0  0.25 0 0  0.3125 0 0  0.375 0 0  0.4375 0 0  0.5 0 0  0.5625 0 0  0.625 0 0  0.6875 0 0  0.75 0 0  0.8125 0 0  0.875 0 0  0.9375 0 0  1 0 0  1.0625 0 0  1.125 0 0  1.1875 0 0  1.25 0 0  1.3125 0 0  1.375 0 0  1.4375 0 0  1.5 0 0  1.5625 0 0  1.625 0 0  1.6875 0 0  1.75 0 0  1.8125 0 0  1.875 0 0  1.9375 0 0  2 0 0  2.0625 0 0  2.125 0 0  2.1875 0 0  2.25 0 0  2.3125 0 0  2.375 0 0  2.4375 0 0  2.5 0 0  2.5625 0 0  2.625 0 0  2.6875 0 0  2.75 0 0  2.8125 0 0  2.875 0 0  2.9375 0 0  3 0 0  3.0625 0 0  3.125 0 0  3.1875 0 0  3.25 0 0  3.3125 0 0  3.375 0 0  3.4375 0 0  3.5 0 0  3.5625 0 0  3.625 0 0  3.6875 0 0  3.75 0 0  3.8125 0 0  3.875 0 0  3.9375 0 0  4 0 0  </DataArray>
</Points>
<Cells>
<DataArray  type="UInt32"  Name="connectivity"  format="ascii">0 1  1 2  2 3  3 4  4 5  5 6  6 7  7 8  8 9  9 10  10 11  11 12  12 13  13 14  14 15  15 16  16 17  17 18  18 19  19 20  20 21  21 22  22 23  23 24  24 25  25 26  26 27  27 28  28 29  29 30  30 31  31 32  32 33  33 34  34 35  35 36  36 37  37 38  38 39  39 40  40 41  41 42  42 43  43 44  44 45  45 46  46 47  47 48  48 49  49 50  50 51  51 52  52 53  53 54  54 55  55 56  56 57  57 58  58 59  59 60  60 61  61 62  62 63  63 64  </DataArray>
<DataArray  type="UInt32"  Name="offsets"  format="ascii">2 4 6 8 10 12 14 16 18 20 22 24 26 28 30 32 34 36 38 40 42 44 46 48 50 52 54 56 58 60 62 64 66 68 70 72 74 76 78 80 82 84 86 88 90 92 94 96 98 100 102 104 106 108 110 112 114 116 118 120 122 124 126 128 </DataArray>
<DataArray  type="UInt8"  Name="types"  format="ascii">3 3 3 3 3 3 3 3 3 3 3 3 3 3 3 3 3 3 3 3 3 3 3 3 3 3 3 3 3 3 3 3 3 3 3 3 3 3 3 3 3 3 3 3 3 3 3 3 3 3 3 3 3 3 3 3 3 3 3 3 3 3 3 3 </DataArray>
</Cells>
<PointData  Scalars="U"> 
<DataArray  type="Float64"  Name="U"  format="ascii">0.0000000000000000e+00  -7.7545904959491901e-02  -1.5592251035512947e-01  -2.3489582170396339e-01  -3.1423367221598120e-01  -3.9370664500496799e-01  -4.7308898562454560e-01  -5.5215950162690264e-01  -6.3070244584933965e-01  -7.0850838014363871e-01  -7.8537501627542117e-01  -8.6110803073512487e-01  -9.3552185021916690e-01  -1.0084404045595534e+00  -1.0796978439030926e+00  -1.1491392169681545e+00  -1.2166211072384516e+00  -1.2820122239907510e+00  -1.3451939450981820e+00  -1.4060608086045356e+00  -1.4645209501295913e+00  -1.5204964832432886e+00  -1.5739238200398102e+00  -1.6247539292540143e+00  -1.6729525293947709e+00  -1.7185002145254358e+00  -1.7613925105036132e+00  -1.8016398597031629e+00  -1.8392675324835279e+00  -1.8743154639470070e+00  -1.9068380148353321e+00  -1.9369036557640589e+00  -1.9645945743775208e+00  -1.9900062054283980e+00  -2.0132466842435690e+00  -2.0344362245302432e+00  -2.0537064220009613e+00  -2.0711994858495846e+00  -2.0870674006885279e+00  -2.1014710221551787e+00  -2.1145791100064883e+00  -2.1265673031384433e+00  -2.1376170415837903e+00  -2.1479144411488673e+00  -2.1576491269399551e+00  -2.1670130325920711e+00  -2.1761991725393619e+00  -2.1854003951468624e+00  -2.1948081249492266e+00  -2.2046111026043262e+00  -2.2149941314600574e+00  -2.2261368398438370e+00  -2.2382124683094156e+00  -2.2513866911093641e+00  -2.2658164810995451e+00  -2.2816490271211824e+00  -2.2990207126453743e+00  -2.3180561641041439e+00  -2.3388673768731238e+00  -2.3615529263170756e+00  -2.3861972706655648e+00  -2.4128701517587108e+00  -2.4416260988999712e+00  -2.4725040401836162e+00  -2.5055270247393606e+00  </DataArray> 
</PointData> 
</Piece>
</UnstructuredGrid>
</VTKFile>