<?xml version="1.0"?>
<VTKFile type="UnstructuredGrid"  version="0.1"  >
<UnstructuredGrid>
<Piece  NumberOfPoints="65" NumberOfCells="64">
<Points>
<DataArray  type="Float64"  NumberOfComponents="3"  format="ascii">0 0 0  0.0625 0 0  0.125 0 0  0.1875 0 0  0.25 0 0  0.3125 0 0  0.375 0 0  0.4375 0 0  0.5 0 0  0.5625 0 0  0.625 0 0  0.6875 0 0  0.75 0 0  0.8125 0 0  0.875 0 0  0.9375 0 0  1 0 0  1.0625 0 0  1.125 0 0  1.1875 0 0  1.25 0 0  1.3125 0 0  1.375 0 0  1.4375 0 0  1.5 0 0  1.5625 0 0  1.625 0 0  1.6875 0 0  1.75 0 0  1.8125 0 0  1.875 0 0  1.9375 0 0  2 0 0  2.0625 0 0  2.125 0 0  2.1875 0 0  2.25 0 0  2.3125 0 0  2.375 0 0  2.4375 0 0  2.5 0 0  2.5625 0 0  2.625 0 0  2.6875 0 0  2.75 0 0  2.8125 0 0  2.875 0 0  2.9375 0 0  3 0 0  3.0625 0 0  3.125 0 0  3.1875 0 0  3.25 0 0  3.3125 0 0  3.375 0 0  3.4375 0 0  3.5 0 0  3.5625 0 0  3.625 0 0  3.6875 0 0  3.75 0 0  3.8125 0 0  3.875 0 0  3.9375 0 0  4 0 0  </DataArray>
</Points>
<Cells>
<DataArray  type="UInt32"  Name="connectivity"  format="ascii">0 1  1 2  2 3  3 4  4 5  5 6  6 7  7 8  8 9  9 10  10 11  11 12  12 13  13 14  14 15  15 16  16 17  17 18  18 19  19 20  20 21  21 22  22 23  23 24  24 25  25 26  26 27  27 28  28 29  29 30  30 31  31 32  32 33  33 34  34 35  35 36  36 37  37 38  38 39  39 40  40 41  41 42  42 43  43 44  44 45  45 46  46 47  47 48  48 49  49 50  50 51  51 52  52 53  53 54  54 55  55 56  56 57  57 58  58 59  59 60  60 61  61 62  62 63  63 64  </DataArray>
<DataArray  type="UInt32"  Name="offsets"  format="ascii">2 4 6 8 10 12 14 16 18 20 22 24 26 28 30 32 34 36 38 40 42 44 46 48 50 52 54 56 58 60 62 64 66 68 70 72 74 76 78 80 82 84 86 88 90 92 94 96 98 100 102 104 106 108 110 112 114 116 118 120 122 124 126 128 </DataArray>
<DataArray  type="UInt8"  Name="types"  format="ascii">3 3 3 3 3 3 3 3 3 3 3 3 3 3 3 3 3 3 3 3 3 3 3 3 3 3 3 3 3 3 3 3 3 3 3 3 3 3 3 3 3 3 3 3 3 3 3 3 3 3 3 3 3 3 3 3 3 3 3 3 3 3 3 3 </DataArray>
</Cells>
<PointData  Scalars="U"> 
<DataArray  type="Float64"  Name="U"  format="ascii">0.0000000000000000e+00  -6.1845791337618375e-03  -1.7775249453584139e-02  -3.3963922195258303e-02  -5.3970814761944409e-02  -7.7056779813453463e-02  -1.0253352813131514e-01  -1.2977134447862554e-01  -1.5820410361044090e-01  -1.8733160033213841e-01  -2.1671939108133065e-01  -2.4599648830688123e-01  -2.7485134338717343e-01  -3.0302659682694066e-01  -3.3031307037130514e-01  -3.5654343360968699e-01  -3.8158590934710834e-01  -4.0533829973268937e-01  -4.2772252988287418e-01  -4.4867982621533969e-01  -4.6816657877753515e-01  -4.8615088356778952e-01  -5.0260972287743810e-01  -5.1752671793842786e-01  -5.3089037646532744e-01  -5.4269275538221606e-01  -5.5292846347949720e-01  -5.6159393764539167e-01  -5.6868693787640756e-01  -5.7420621929951976e-01  -5.7815135333180900e-01  -5.8052268478701630e-01  -5.8132142758744376e-01  -5.8054991947956236e-01  -5.7821207674540454e-01  -5.7431411440550617e-01  -5.6886562677835673e-01  -5.6188115808142391e-01  -5.5338243287843858e-01  -5.4340146023533908e-01  -5.3198477030757885e-01  -5.1919908223681432e-01  -5.0513872928468384e-01  -4.8993516951496202e-01  -4.7376887355716846e-01  -4.5688378860605744e-01  -4.3960441346840523e-01  -4.2235527007085849e-01  -4.0568221689079920e-01  -3.9027462639407717e-01  -3.7698696644489738e-01  -3.6685783060701238e-01  -3.6112402187180964e-01  -3.6122699416989557e-01  -3.6880889014632801e-01  -3.8569566970907343e-01  -4.1386546360782950e-01  -4.5540132536475691e-01  -5.1242894568065400e-01  -5.8704151694740181e-01  -6.8121560619088084e-01  -7.9672338116985297e-01  -9.3504759389697256e-01  -1.0973061487756921e+00  -1.2841927361094607e+00  </DataArray> 
</PointData> 
</Piece>
</UnstructuredGrid>
</VTKFile>