<?xml version="1.0"?>
<VTKFile type="UnstructuredGrid"  version="0.1"  >
<UnstructuredGrid>
<Piece  NumberOfPoints="335" NumberOfCells="604">
<Points>
<DataArray  type="Float64"  NumberOfComponents="3"  format="ascii">0 2 0  0 0 0  4 0 0  4 2 0  2 0 0  2 2 0  1 0 0  1 2 0  0 1 0  4 1 0  3 2 0  3 0 0  1.5 1 0  3 1 0  0.75 0.75 0  2.25 1.25 0  0.5625 1.4375 0  4 0.5 0  3.5 0 0  4 1.5 0  3.5 2 0  2.5 0 0  2.035714285714286 0.6428571428571428 0  1.5 0 0  3.416666666666667 0.5833333333333334 0  1.135869565217391 1.442934782608696 0  1.75 1.5 0  2.611201298701299 0.5693993506493507 0  3.5 1.25 0  1.25 0.5 0  2.5 2 0  2.75 1.5 0  0.5 0 0  0 0.5 0  0 1.5 0  0.5 2 0  1.5 2 0  3.196428571428572 1.589285714285714 0  1.75 0.3363095238095237 0  3.016488529250673 0.4286986695828525 0  1.075849239304906 1.022452282085282 0  2.25 0.308531746031746 0  0.4375 0.4375 0  2.375 1.625 0  0.359375 0.828125 0  0.875 0.375 0  2.579589900409902 0.9887697012297049 0  1.875 1.125 0  3.625 1.625 0  3.738095238095238 0.75 0  0.61328125 1.08203125 0  0.283203125 1.216238839285714 0  0.75 1.743055555555556 0  1.575774875167458 0.6496125624162709 0  0.30625 1.69375 0  3.677083333333333 0.3229166666666667 0  3.347222222222222 0.9305555555555556 0  2.75 0 0  1.426285733982903 1.650642866991451 0  1.441247178754399 1.322840772184865 0  3.307719501506081 0.2701504049770592 0  2.343107299193003 0.7600674782727458 0  2.041666666666667 1.666666666666667 0  0.8721051282065269 1.266059980878688 0  3.017857142857143 1.321428571428571 0  0.25 0 0  3.124094139334942 0.7176929188969303 0  2.133642051592332 0.9740738452230051 0  2.744869578259833 0.3003660856503637 0  2.795144003253926 0.7941412087465988 0  1.143043947544775 1.739786699825343 0  1.808516825619384 0.8349817990159853 0  2.006944444444445 1.388888888888889 0  2.545410099590098 1.284179800819803 0  2.625 1.75 0  1.049150760695094 0.7233015213901878 0  1.458640484663616 0.2918202423318081 0  2.938492063492064 1.718253968253968 0  1.75 2 0  1.125 0.25 0  3.708891369047619 1.042782738095238 0  3.75 1.375 0  0 0.25 0  2.785310692237909 1.162254590955012 0  1.323940624311342 0.7684841149566988 0  2.25 2 0  0.75 0 0  0.6335227272727273 0.2471590909090909 0  4 1.75 0  3.75 2 0  3.210459183673469 1.149518140589569 0  3.398166023166023 1.757722007722008 0  1.996445105820106 0.2584325396825397 0  2.75 2 0  1.25 2 0  3.25 0 0  3.75 0 0  1.25 0 0  0.75 2 0  0 1.25 0  4 0.75 0  0 0.75 0  2.25 0 0  1.75 0 0  0.25 2 0  0 1.75 0  4 0.25 0  1.669430850940762 1.75 0  4 1.25 0  3.25 2 0  2.498111965552158 0.3454883412923062 0  0.8003899450697071 1.501828266030458 0  0.2153532608695652 0.625 0  0.2412533945605322 1.457575279565611 0  1.678090669413954 1.267696889804651 0  0.2053571428571428 0.375 0  0.375 0.2050382653061225 0  1.294175302171828 1.12930909293974 0  0.835161298469517 0.9792300199580364 0  2.249446885750175 0.544013092708228 0  1.805072998422435 0.6005105219729567 0  3.420918367346939 1.48469387755102 0  0.5222222222222223 1.771527777777778 0  2.354573390699718 1.043404315840394 0  0.671875 0.515625 0  0.53515625 0.69140625 0  2.214583333333334 1.470138888888889 0  3.231892178836853 1.372190928394479 0  3.639880952380952 0.5461309523809526 0  3.51660541173964 0.7838766379034835 0  3.210840504937081 0.5208629907674649 0  2.950588740601899 0.2165668709345833 0  2.815233623969196 0.5030491785795254 0  1.083528949974407 1.235881015826932 0  2.585211668467502 0.778316879153453 0  3.143120343375446 1.805089893100097 0  0.9896521505025003 1.594981251830706 0  1.87957996989704 1.815676662903797 0  1.626600058535864 0.1681547619047618 0  2.953373015873016 1.514880952380952 0  0.2220850766736066 1.002711978499359 0  0.4224260205797096 1.01898022942029 0  0.5986328125 0.8818359375 0  2.375 0.154265873015873 0  0.8212256493506493 0.1845914502164502 0  3.8125 1.5625 0  3.78125 1.78125 0  1.0625 0.4375 0  0.8671875 0.5807291666666666 0  2.4375 1.8125 0  2.22275641025641 1.78525641025641 0  2.539794950204951 1.494384850614852 0  2.059027777777778 1.197916666666667 0  1.704515975736352 1.011452072790943 0  0.9470212454254227 1.801453052498988 0  1.918017502100738 0.4391265981339625 0  1.375 1.84391955596417 0  2.594123205043675 0.1732636966881334 0  1.611497372532367 0.8407251842095733 0  3.586538895025134 1.821085722175172 0  2.384120800622756 1.384496213629809 0  3.508505519670329 1.049676104119021 0  0.1820540335558793 0.1820974550765656 0  1.450689899973606 0.4924930565216958 0  2.969389279592704 0.610766185970977 0  3.479636682219977 0.3858866822199769 0  3.484790611891776 0.1926780268286212 0  3.125 0.1424398309976598 0  3.858534946236559 0.375 0  3.815049380551659 0.1843794300170415 0  2.8153725923641 0.9788695978190264 0  0.1761290113871636 0.8054315476190477 0  3.824210042675814 0.5563956403663389 0  2.427629910979513 0.5950983296204954 0  0.4637895652744943 1.595039565274494 0  0.1353316326530613 1.625 0  3.869047619047619 0.875 0  1.249564973844784 0.9439888838553999 0  2.125 0.1309601694653478 0  0.6730905143458559 1.271937037763694 0  0.4758841466846654 1.259926649442542 0  1.375 0.1311248731373872 0  0.6473533488434536 1.595737086442022 0  1.662034256815698 0.4924865966265944 0  3.869672512075917 1.125 0  1.832390038253737 0.1681547619047619 0  1.251129743036335 1.588661803950864 0  1.593890444587146 1.587672319401741 0  2.09822870286213 0.4099774202448945 0  0.3672041804298913 1.863236482119776 0  3.175675638845282 0.9756004164486307 0  3.312917483130068 0.7431390521815694 0  1.949346764610204 0.9553275675867292 0  0 1.875 0  0.125 2 0  0.1697704081632653 1.8125 0  1.250217015798098 1.303886758833925 0  1.835950419976561 1.346112776751352 0  0.9599823676558117 1.420119779128127 0  3.593112244897959 1.45280612244898 0  2.056540224487935 0.8167847786318049 0  1.813391518603679 1.658412378406144 0  2.717540968022779 1.325887924832463 0  2.875 2 0  2.790782176324345 1.823358911837828 0  2.96559571976349 0.7816340462561718 0  1.291066125893253 0.2769264367112843 0  2.058790178805516 1.838077939017356 0  3.673332592838314 1.215834814323372 0  0.9071956592137768 0.8220343607442596 0  0.1310120797546304 1.144290287522608 0  1.913874615570387 1.526312479062075 0  3.167986306711986 0.3602294831961773 0  1.587529998678765 1.414932407001446 0  3.649130568669384 0.1571119266068894 0  2.438436537601556 0.8981101131576004 0  2.184935068055161 0.7132002379880827 0  1.456235642937205 1.158801966988924 0  1.386503074512992 1.484584638506796 0  0.3867705968705845 0.6027444819728521 0  2.762778993639535 1.662639496819767 0  0.650390625 1.871527777777778 0  3.64596729502979 0.8886584698474683 0  3.045611599070008 1.158676339734206 0  0.3993538884374467 1.407167403628448 0  0.1516836018189417 1.317691898227368 0  2.374177243744587 0.44524900986925 0  0.9610399745072515 1.13343594717961 0  0.7717402898146146 1.133192846304489 0  2.217406840067589 1.627730408320619 0  3.374466497724555 1.144327478293632 0  3.102333217040289 1.462470750260982 0  0.9845991046279567 0.1639504476860216 0  4 1.875 0  1.536737024305362 1.842483914655334 0  2.494398952860155 1.128595263390141 0  3.375 0 0  1.35480793550772 0.615559550979754 0  1.200028215648868 0.6638952964742415 0  2.868522658058045 1.379123954802417 0  3.32987895819658 0.4227871628526512 0  2.886186525788335 0.3528756827196673 0  2.804013819276893 0.1511494444935829 0  2.680690785851866 0.4362020186265224 0  1.110915716469613 0.8685559166680689 0  2.214722448960161 1.102379401681194 0  2.276771166733366 0.9046523967228255 0  1.706689197955897 0.724037154727565 0  1.903015710979854 0.7163329050691327 0  1.077254105049741 1.873044405931742 0  1.477182186374218 0.7669362764052622 0  1.604355390029422 0.3138347014223712 0  3.357298773015283 1.292121771221682 0  2.642456732564144 1.122937069483146 0  2.827183673783701 0.6501131617032385 0  0.3000359809036467 0.4857081933782919 0  1.39080974675033 0.9003338946919665 0  2.693907172777001 0.8986988520891301 0  2.931442998585418 1.86469249778093 0  1.607564319358728 1.130938877124746 0  3.077810808817073 1.674470823983352 0  1.080472523982749 0.5815519813637883 0  3.088890913835956 0.8588454627236115 0  3.284214600296659 1.854479326042458 0  1.2873402129058 1.728774218841188 0  2.9013999795169 1.242110306871886 0  0.8761001761669315 1.679172777133284 0  1.219550944192924 1.860427700898438 0  0.5165446672830528 0.1507081055534605 0  0.4929450837918542 0.2984926303907968 0  0.6053481855006131 0.388156428045367 0  1.229670648686675 0.1445228097338785 0  2.074781746031746 1.521468253968254 0  2.128472222222222 1.319444444444444 0  0.8190857636454005 1.871527777777778 0  1.19016415713109 0.373667921434455 0  2.522705049795049 1.642089900409902 0  2.5625 1.875 0  1 0.3125 0  3.875 1.4375 0  3.854421179608893 1.271342359217786 0  3.875 2 0  3.252895074367309 1.717720366266284 0  3.339445936751456 1.603038018552652 0  3.482215988057832 1.614109768761893 0  2.408003729780754 1.243076190508459 0  3.355663254605069 0.1386374657746271 0  0.625 0 0  3.739816599856081 0.4464807305048627 0  2.696925297991427 0.6967143210263376 0  0.7382134072506095 0.3413923519609702 0  0.6975123597992916 0.1262897850255805 0  0.517492993476645 0.5524666371243673 0  1.125 0 0  3.225246433696271 0.8481228132984594 0  2.910439866484053 1.104659118790428 0  1.346838689382765 0.4025104968201652 0  2.648094909987562 1.589828726016094 0  1.932279840451773 1.249120455579388 0  3.614646585703633 0.6838796340683926 0  2.505502053701187 0.4828624056142278 0  1.74173389467281 1.148311677154633 0  1.999851510882803 1.078582430205837 0  3.515990234791048 0.9168810411194217 0  2.319573569366616 1.882073569366616 0  3.87890625 1.68359375 0  1.625 2 0  3.375 2 0  3.4375 1.883729560522389 0  0.6980343576336376 1.408315550915699 0  1.749733229779213 1.862103198238473 0  1.543560459462408 1.710839018652099 0  0 0.875 0  0.9914745867414203 0.9222835981771756 0  3.869047619047619 0.6922933184737153 0  0.351025727780003 1.528728843746343 0  1.119959354294166 1.573963676456541 0  1.79099212
[...]
<PointData  Scalars="U"> 
<DataArray  type="Float64"  Name="U"  format="ascii">1.4325238509479177e-01  0.0000000000000000e+00  4.8147509611386039e-19  1.4325238509479177e-01  0.0000000000000000e+00  1.4325238509479180e-01  6.2515674911819870e-19  1.4325238509479177e-01  1.0743928882109384e-01  5.2379491129916260e-03  1.4325238509479174e-01  0.0000000000000000e+00  1.4544287953006956e-02  5.4330646534838951e-03  4.3596562823483509e-02  2.5024433820016418e-02  1.0233999357234613e-01  4.3635777418861111e-03  0.0000000000000000e+00  5.9044581709833864e-02  1.4325238509479177e-01  0.0000000000000000e+00  3.1469152869224347e-03  0.0000000000000000e+00  2.7722772577477698e-03  6.8669009707810216e-02  6.2365241766554488e-02  3.2003652318627921e-03  2.4482435854034507e-02  1.5920153696778676e-02  1.4325238509479177e-01  5.9397893642651731e-02  0.0000000000000000e+00  6.2672918478971412e-02  1.3429911102636727e-01  1.4325238509479177e-01  1.4325238509479180e-01  7.4481913712907591e-02  9.2956137009085633e-03  5.8346492702327345e-03  3.2443944830428999e-02  7.8526876384046752e-03  4.8084014716172740e-02  8.0736950713615779e-02  7.6612220380514517e-02  2.6426112757071893e-02  5.1322840108411569e-03  1.5985138544399088e-02  8.0736861413520794e-02  6.0476077992842434e-04  7.0218246845397694e-02  1.0661982526923512e-01  1.2240657971548231e-01  7.7212596295700969e-03  1.3510149620289308e-01  7.2480287903208974e-03  2.5745967729569430e-03  0.0000000000000000e+00  9.1507637224378019e-02  4.2936794692651423e-02  7.4331018037673401e-03  1.2223471662378158e-03  8.8921009867268891e-02  6.3593968283389965e-02  3.3144055116293786e-02  6.9106806380555576e-19  8.9942388238685293e-04  5.6051152776815062e-03  7.3528902377549442e-03  9.1412582433769566e-04  1.1065308592959407e-01  4.5669723016005456e-03  4.3950259795206434e-02  2.8654707596355727e-02  1.0292481615650555e-01  2.4957763615017059e-02  1.1627510204072888e-02  9.7227583817880034e-02  1.4325238509479180e-01  1.5638516339941955e-02  7.6497600760143591e-03  4.0509877630260330e-02  3.3574777756591817e-02  1.6081799295686591e-02  1.3801972314235213e-02  1.4325238509479177e-01  0.0000000000000000e+00  2.6636827729835666e-02  1.0279337099994926e-01  1.4325238509479177e-01  1.4913211995045939e-02  1.0424891820633399e-01  8.1778226709884258e-03  1.4325238509479177e-01  1.4325238509479177e-01  0.0000000000000000e+00  0.0000000000000000e+00  5.5386847032317010e-19  1.4325238509479177e-01  1.2310751844083670e-01  2.6441712270363049e-04  8.7294422167138744e-02  0.0000000000000000e+00  0.0000000000000000e+00  1.4325238509479180e-01  1.4101406657768567e-01  7.3954733666821556e-03  1.0515888335578835e-01  2.3873271142131846e-02  1.4325238509479180e-01  7.2896072080231187e-03  9.3244532076333514e-02  7.1426553901279430e-02  1.2467606716997287e-01  3.1634746234499418e-02  4.9254830290640254e-02  2.8746986099596777e-02  2.8400379762651105e-02  4.6262797837178404e-02  4.1660866687576225e-03  5.3836226966996296e-03  5.6732805363229270e-02  1.3283997322355329e-01  7.8219954809922443e-03  4.0550013097262423e-02  5.6460990449008083e-02  5.5220865712846796e-02  4.0296380776387343e-02  3.5235417351046298e-03  7.1511214209402064e-04  3.9366163314042820e-03  7.1247390893013456e-03  4.4880163268646170e-03  4.7485844859041504e-02  6.6331694540589458e-04  1.1287778070953185e-01  9.5239496135049173e-02  1.1553930457241521e-01  8.2256900382108537e-03  6.1652368687464654e-02  9.6963217694702855e-02  8.2738684108667124e-02  6.0484152642879742e-02  6.5439654422458759e-03  1.7995652842155173e-02  6.9790575255862811e-02  1.0856842924652640e-01  2.1325021539495923e-02  3.2031979162118779e-02  1.1398641215411641e-01  1.0949443243226396e-01  5.8466626135914058e-02  2.0848436845865567e-02  1.0851662013664966e-02  1.2347054688766983e-01  7.1782302511892862e-03  1.2283893431766303e-01  6.8671734029995277e-03  7.2044205391484087e-03  1.1555764159816706e-01  4.2009844317278396e-02  7.6229732223115996e-03  2.6988534553127375e-02  1.1478201433433439e-02  2.3050339741856624e-03  6.5034182277667017e-03  6.9877965527199862e-03  5.9285727865842188e-03  6.5476680835824799e-03  6.9714234341810575e-03  4.4408947522663741e-03  8.6289545125121409e-02  3.2752737247072846e-03  2.9344816166101181e-03  1.2201307533375148e-01  1.3691257692757777e-01  1.2666696267985924e-03  2.0675961379938601e-02  6.0953997012876873e-03  7.9251015058864491e-02  9.4423964166285790e-02  8.2529653928079625e-03  1.1202164290034557e-01  8.4033590530649717e-03  1.2919943455455041e-02  7.1968753714074987e-03  8.5464710913187109e-02  7.8489722554484109e-02  6.8566922164092327e-03  1.4090875083870452e-01  4.1632063527690067e-03  7.0485279765427407e-04  5.7462338204186982e-03  1.4269280546551524e-01  1.4325238509479180e-01  1.4255058898097892e-01  4.7248284585180274e-02  3.9282654294208040e-02  7.4580015101162397e-02  5.1646083916827200e-02  2.4766691108946376e-03  8.8485907326801352e-02  3.3510787357126023e-02  1.4325238509479177e-01  1.1578428907652301e-01  4.4330960877071794e-04  1.3488594157316576e-02  1.1869750569898281e-01  2.0704239693251487e-02  3.5221495944326629e-02  1.1166928092924562e-01  6.5336659523411805e-02  6.7552982162313382e-03  5.2176753741823990e-02  6.3217996899434040e-03  2.2939060169860012e-03  1.8645777082360122e-03  2.6067806998823041e-02  6.6321363370391587e-02  6.1114071103181622e-02  8.7321119638650399e-02  1.3627562358028861e-01  1.6206704163261795e-03  1.5482493279753241e-02  1.1139665814675899e-01  1.2099418806405808e-01  5.8685588054862214e-03  4.6528180914692310e-02  6.0425143573863152e-02  8.1645330285604722e-02  1.4694688534562994e-02  5.3216220401483175e-02  1.3645751961939082e-02  1.2421403844317870e-01  1.2110222421752037e-01  1.3624389158808408e-02  0.0000000000000000e+00  1.2715442304534752e-02  1.7670057441864444e-02  4.1021780418011300e-02  5.8346199835843850e-03  7.0213190378150452e-03  6.1935869997175094e-03  5.7270451407979983e-03  2.4543787820400426e-02  1.2180037378923128e-02  2.5614687902552132e-03  5.2775242659313451e-03  3.1341811681278192e-03  1.2955639690133963e-01  9.5614484199507185e-03  1.0292877454864452e-02  2.9627245993817462e-02  1.2513266175948572e-02  1.7676101946339957e-03  5.6472171829857212e-02  1.3835815384115487e-02  1.9250919964655683e-03  1.2246871413652198e-01  2.0289283706143375e-02  8.9439809690864708e-02  2.2057959864811093e-02  1.3836229797109150e-03  1.2092184227666042e-01  1.0623688761726893e-01  2.3914105673319180e-02  1.1060620641126731e-01  1.2629976308552787e-01  1.9765487029282009e-02  3.4711728258767449e-02  3.7446317572655194e-02  9.6981274317268704e-03  6.3791817693838238e-02  3.4204238493142983e-02  1.3329805187348048e-01  1.6868007126353328e-02  8.3775124959938940e-02  1.2434954356869737e-01  2.0394732160687348e-02  4.9623228086984411e-02  2.7149246362019330e-02  1.4325238509479180e-01  9.7233955031231556e-02  7.6807294468792323e-02  7.8709796951717051e-02  2.4338004442947047e-02  5.7968624842893689e-03  1.1532927454491858e-18  5.3493743818663689e-03  1.0913909938140426e-03  2.9860711516590199e-02  1.4452081524168521e-02  5.0955271209912438e-02  1.2503134982363974e-18  1.1375179145214276e-03  1.1643259142931461e-02  1.3733354200314529e-02  7.4554482318249113e-02  2.7004411091323819e-02  1.2553306150684608e-03  5.0191978622389447e-03  1.9173192042715229e-02  1.1652947950045447e-02  2.6584418058622416e-03  1.2545393066859323e-01  9.1107693056364639e-02  1.4325238509479177e-01  1.4325238509479177e-01  1.2565002886459070e-01  9.0050792750125813e-02  1.2316582046867104e-01  9.9780386202243998e-02  9.7926435123392830e-02  3.2869483415792961e-02  1.0273371656395751e-03  1.2341405738407822e-01  8.7527424696497241e-02  7.5907748916595333e-03  5.4556441728978783e-03  2.3615702551898024e-18  7.3011577534523881e-03  6.1474560694088059e-03  7.7518568429855638e-03  8.6223164852592231e-03  2.5499721076679187e-02  7.7534722035800261e-03  2.7790555880966889e-03  0.0000000000000000e+00  1.7346968507572443e-02  1.4001505479525860e-18  9.8652939069145282e-02  5.6844146361708092e-02  5.6790306492061286e-02  8.7139922722848737e-03  6.2729822120645193e-02  </DataArray> 
</PointData> 
</Piece>
</UnstructuredGrid>
</VTKFile>