<?xml version="1.0"?>
<VTKFile type="UnstructuredGrid"  version="0.1"  >
<UnstructuredGrid>
<Piece  NumberOfPoints="65" NumberOfCells="64">
<Points>
<DataArray  type="Float64"  NumberOfComponents="3"  format="ascii">0 0 0  0.0625 0 0  0.125 0 0  0.1875 0 0  0.25 0 0  0.3125 0 0  0.375 0 0  0.4375 0 0  0.5 0 0  0.5625 0 0  0.625 0 0  0.6875 0 0  0.75 0 0  0.8125 0 0  0.875 0 0  0.9375 0 0  1 0 0  1.0625 0 0  1.125 0 0  1.1875 0 0  1.25 0 0  1.3125 0 0  1.375 0 0  1.4375 0 0  1.5 0 0  1.5625 0 0  1.625 0 0  1.6875 0 0  1.75 0 0  1.8125 0 0  1.875 0 0  1.9375 0 0  2 0 0  2.0625 0 0  2.125 0 0  2.1875 0 0  2.25 0 0  2.3125 0 0  2.375 0 0  2.4375 0 0  2.5 0 0  2.5625 0 0  2.625 0 0  2.6875 0 0  2.75 0 0  2.8125 0 0  2.875 0 0  2.9375 0 0  3 0 0  3.0625 0 0  3.125 0 0  3.1875 0 0  3.25 0 0  3.3125 0 0  3.375 0 0  3.4375 0 0  3.5 0 0  3.5625 0 0  3.625 0 0  3.6875 0 0  3.75 0 0  3.8125 0 0  3.875 0 0  3.9375 0 0  4 0 0  </DataArray>
</Points>
<Cells>
<DataArray  type="UInt32"  Name="connectivity"  format="ascii">0 1  1 2  2 3  3 4  4 5  5 6  6 7  7 8  8 9  9 10  10 11  11 12  12 13  13 14  14 15  15 16  16 17  17 18  18 19  19 20  20 21  21 22  22 23  23 24  24 25  25 26  26 27  27 28  28 29  29 30  30 31  31 32  32 33  33 34  34 35  35 36  36 37  37 38  38 39  39 40  40 41  41 42  42 43  43 44  44 45  45 46  46 47  47 48  48 49  49 50  50 51  51 52  52 53  53 54  54 55  55 56  56 57  57 58  58 59  59 60  60 61  61 62  62 63  63 64  </DataArray>
<DataArray  type="UInt32"  Name="offsets"  format="ascii">2 4 6 8 10 12 14 16 18 20 22 24 26 28 30 32 34 36 38 40 42 44 46 48 50 52 54 56 58 60 62 64 66 68 70 72 74 76 78 80 82 84 86 88 90 92 94 96 98 100 102 104 106 108 110 112 114 116 118 120 122 124 126 128 </DataArray>
<DataArray  type="UInt8"  Name="types"  format="ascii">3 3 3 3 3 3 3 3 3 3 3 3 3 3 3 3 3 3 3 3 3 3 3 3 3 3 3 3 3 3 3 3 3 3 3 3 3 3 3 3 3 3 3 3 3 3 3 3 3 3 3 3 3 3 3 3 3 3 3 3 3 3 3 3 </DataArray>
</Cells>
<PointData  Scalars="U"> 
<DataArray  type="Float64"  Name="U"  format="ascii">0.0000000000000000e+00  -5.7365736553562668e-02  -1.1734706702933261e-01  -1.7954925997599189e-01  -2.4358095189410015e-01  -3.0905583525278368e-01  -3.7559429693641000e-01  -4.4282499250068008e-01  -5.1038634337439193e-01  -5.7792794623866495e-01  -6.4511188618622417e-01  -7.1161394783751897e-01  -7.7712472128972543e-01  -8.4135060251652649e-01  -9.0401469053649841e-01  -9.6485758624164708e-01  -1.0236381001432457e+00  -1.0801338783721122e+00  -1.1341419579936569e+00  -1.1854792640012286e+00  -1.2339830611809235e+00  -1.2795113743543822e+00  -1.3219433902726889e+00  -1.3611798536368496e+00  -1.3971434683551818e+00  -1.4297793132266303e+00  -1.4590552787883531e+00  -1.4849625291283273e+00  -1.5075159890976353e+00  -1.5267548536367990e+00  -1.5427431119456960e+00  -1.5555700750817687e+00  -1.5653508913842162e+00  -1.5722270300223748e+00  -1.5763667090934503e+00  -1.5779652411935312e+00  -1.5772452664044079e+00  -1.5744568403236323e+00  -1.5698773432564570e+00  -1.5638111761140825e+00  -1.5565892090338476e+00  -1.5485679503413554e+00  -1.5401284062710474e+00  -1.5316746058755135e+00  -1.5236317707716815e+00  -1.5164441157389610e+00  -1.5105722736017215e+00  -1.5064903461530232e+00  -1.5046825919222473e+00  -1.5056397711302607e+00  -1.5098551779515998e+00  -1.5178203999258593e+00  -1.5300208537236513e+00  -1.5469311551614333e+00  -1.5690103890629017e+00  -1.5966973509867215e+00  -1.6304058377131176e+00  -1.6705200664769861e+00  -1.7173903040749010e+00  -1.7713287860396210e+00  -1.8326060030171971e+00  -1.9014474263186822e+00  -1.9780307374438688e+00  -2.0624836173532386e+00  -2.1548821406282772e+00  </DataArray> 
</PointData> 
</Piece>
</UnstructuredGrid>
</VTKFile>