<?xml version="1.0"?>
<VTKFile type="UnstructuredGrid"  version="0.1"  >
<UnstructuredGrid>
<Piece  NumberOfPoints="335" NumberOfCells="604">
<Points>
<DataArray  type="Float64"  NumberOfComponents="3"  format="ascii">0 2 0  0 0 0  4 0 0  4 2 0  2 0 0  2 2 0  1 0 0  1 2 0  0 1 0  4 1 0  3 2 0  3 0 0  1.5 1 0  3 1 0  0.75 0.75 0  2.25 1.25 0  0.5625 1.4375 0  4 0.5 0  3.5 0 0  4 1.5 0  3.5 2 0  2.5 0 0  2.035714285714286 0.6428571428571428 0  1.5 0 0  3.416666666666667 0.5833333333333334 0  1.135869565217391 1.442934782608696 0  1.75 1.5 0  2.611201298701299 0.5693993506493507 0  3.5 1.25 0  1.25 0.5 0  2.5 2 0  2.75 1.5 0  0.5 0 0  0 0.5 0  0 1.5 0  0.5 2 0  1.5 2 0  3.196428571428572 1.589285714285714 0  1.75 0.3363095238095237 0  3.016488529250673 0.4286986695828525 0  1.075849239304906 1.022452282085282 0  2.25 0.308531746031746 0  0.4375 0.4375 0  2.375 1.625 0  0.359375 0.828125 0  0.875 0.375 0  2.579589900409902 0.9887697012297049 0  1.875 1.125 0  3.625 1.625 0  3.738095238095238 0.75 0  0.61328125 1.08203125 0  0.283203125 1.216238839285714 0  0.75 1.743055555555556 0  1.575774875167458 0.6496125624162709 0  0.30625 1.69375 0  3.677083333333333 0.3229166666666667 0  3.347222222222222 0.9305555555555556 0  2.75 0 0  1.426285733982903 1.650642866991451 0  1.441247178754399 1.322840772184865 0  3.307719501506081 0.2701504049770592 0  2.343107299193003 0.7600674782727458 0  2.041666666666667 1.666666666666667 0  0.8721051282065269 1.266059980878688 0  3.017857142857143 1.321428571428571 0  0.25 0 0  3.124094139334942 0.7176929188969303 0  2.133642051592332 0.9740738452230051 0  2.744869578259833 0.3003660856503637 0  2.795144003253926 0.7941412087465988 0  1.143043947544775 1.739786699825343 0  1.808516825619384 0.8349817990159853 0  2.006944444444445 1.388888888888889 0  2.545410099590098 1.284179800819803 0  2.625 1.75 0  1.049150760695094 0.7233015213901878 0  1.458640484663616 0.2918202423318081 0  2.938492063492064 1.718253968253968 0  1.75 2 0  1.125 0.25 0  3.708891369047619 1.042782738095238 0  3.75 1.375 0  0 0.25 0  2.785310692237909 1.162254590955012 0  1.323940624311342 0.7684841149566988 0  2.25 2 0  0.75 0 0  0.6335227272727273 0.2471590909090909 0  4 1.75 0  3.75 2 0  3.210459183673469 1.149518140589569 0  3.398166023166023 1.757722007722008 0  1.996445105820106 0.2584325396825397 0  2.75 2 0  1.25 2 0  3.25 0 0  3.75 0 0  1.25 0 0  0.75 2 0  0 1.25 0  4 0.75 0  0 0.75 0  2.25 0 0  1.75 0 0  0.25 2 0  0 1.75 0  4 0.25 0  1.669430850940762 1.75 0  4 1.25 0  3.25 2 0  2.498111965552158 0.3454883412923062 0  0.8003899450697071 1.501828266030458 0  0.2153532608695652 0.625 0  0.2412533945605322 1.457575279565611 0  1.678090669413954 1.267696889804651 0  0.2053571428571428 0.375 0  0.375 0.2050382653061225 0  1.294175302171828 1.12930909293974 0  0.835161298469517 0.9792300199580364 0  2.249446885750175 0.544013092708228 0  1.805072998422435 0.6005105219729567 0  3.420918367346939 1.48469387755102 0  0.5222222222222223 1.771527777777778 0  2.354573390699718 1.043404315840394 0  0.671875 0.515625 0  0.53515625 0.69140625 0  2.214583333333334 1.470138888888889 0  3.231892178836853 1.372190928394479 0  3.639880952380952 0.5461309523809526 0  3.51660541173964 0.7838766379034835 0  3.210840504937081 0.5208629907674649 0  2.950588740601899 0.2165668709345833 0  2.815233623969196 0.5030491785795254 0  1.083528949974407 1.235881015826932 0  2.585211668467502 0.778316879153453 0  3.143120343375446 1.805089893100097 0  0.9896521505025003 1.594981251830706 0  1.87957996989704 1.815676662903797 0  1.626600058535864 0.1681547619047618 0  2.953373015873016 1.514880952380952 0  0.2220850766736066 1.002711978499359 0  0.4224260205797096 1.01898022942029 0  0.5986328125 0.8818359375 0  2.375 0.154265873015873 0  0.8212256493506493 0.1845914502164502 0  3.8125 1.5625 0  3.78125 1.78125 0  1.0625 0.4375 0  0.8671875 0.5807291666666666 0  2.4375 1.8125 0  2.22275641025641 1.78525641025641 0  2.539794950204951 1.494384850614852 0  2.059027777777778 1.197916666666667 0  1.704515975736352 1.011452072790943 0  0.9470212454254227 1.801453052498988 0  1.918017502100738 0.4391265981339625 0  1.375 1.84391955596417 0  2.594123205043675 0.1732636966881334 0  1.611497372532367 0.8407251842095733 0  3.586538895025134 1.821085722175172 0  2.384120800622756 1.384496213629809 0  3.508505519670329 1.049676104119021 0  0.1820540335558793 0.1820974550765656 0  1.450689899973606 0.4924930565216958 0  2.969389279592704 0.610766185970977 0  3.479636682219977 0.3858866822199769 0  3.484790611891776 0.1926780268286212 0  3.125 0.1424398309976598 0  3.858534946236559 0.375 0  3.815049380551659 0.1843794300170415 0  2.8153725923641 0.9788695978190264 0  0.1761290113871636 0.8054315476190477 0  3.824210042675814 0.5563956403663389 0  2.427629910979513 0.5950983296204954 0  0.4637895652744943 1.595039565274494 0  0.1353316326530613 1.625 0  3.869047619047619 0.875 0  1.249564973844784 0.9439888838553999 0  2.125 0.1309601694653478 0  0.6730905143458559 1.271937037763694 0  0.4758841466846654 1.259926649442542 0  1.375 0.1311248731373872 0  0.6473533488434536 1.595737086442022 0  1.662034256815698 0.4924865966265944 0  3.869672512075917 1.125 0  1.832390038253737 0.1681547619047619 0  1.251129743036335 1.588661803950864 0  1.593890444587146 1.587672319401741 0  2.09822870286213 0.4099774202448945 0  0.3672041804298913 1.863236482119776 0  3.175675638845282 0.9756004164486307 0  3.312917483130068 0.7431390521815694 0  1.949346764610204 0.9553275675867292 0  0 1.875 0  0.125 2 0  0.1697704081632653 1.8125 0  1.250217015798098 1.303886758833925 0  1.835950419976561 1.346112776751352 0  0.9599823676558117 1.420119779128127 0  3.593112244897959 1.45280612244898 0  2.056540224487935 0.8167847786318049 0  1.813391518603679 1.658412378406144 0  2.717540968022779 1.325887924832463 0  2.875 2 0  2.790782176324345 1.823358911837828 0  2.96559571976349 0.7816340462561718 0  1.291066125893253 0.2769264367112843 0  2.058790178805516 1.838077939017356 0  3.673332592838314 1.215834814323372 0  0.9071956592137768 0.8220343607442596 0  0.1310120797546304 1.144290287522608 0  1.913874615570387 1.526312479062075 0  3.167986306711986 0.3602294831961773 0  1.587529998678765 1.414932407001446 0  3.649130568669384 0.1571119266068894 0  2.438436537601556 0.8981101131576004 0  2.184935068055161 0.7132002379880827 0  1.456235642937205 1.158801966988924 0  1.386503074512992 1.484584638506796 0  0.3867705968705845 0.6027444819728521 0  2.762778993639535 1.662639496819767 0  0.650390625 1.871527777777778 0  3.64596729502979 0.8886584698474683 0  3.045611599070008 1.158676339734206 0  0.3993538884374467 1.407167403628448 0  0.1516836018189417 1.317691898227368 0  2.374177243744587 0.44524900986925 0  0.9610399745072515 1.13343594717961 0  0.7717402898146146 1.133192846304489 0  2.217406840067589 1.627730408320619 0  3.374466497724555 1.144327478293632 0  3.102333217040289 1.462470750260982 0  0.9845991046279567 0.1639504476860216 0  4 1.875 0  1.536737024305362 1.842483914655334 0  2.494398952860155 1.128595263390141 0  3.375 0 0  1.35480793550772 0.615559550979754 0  1.200028215648868 0.6638952964742415 0  2.868522658058045 1.379123954802417 0  3.32987895819658 0.4227871628526512 0  2.886186525788335 0.3528756827196673 0  2.804013819276893 0.1511494444935829 0  2.680690785851866 0.4362020186265224 0  1.110915716469613 0.8685559166680689 0  2.214722448960161 1.102379401681194 0  2.276771166733366 0.9046523967228255 0  1.706689197955897 0.724037154727565 0  1.903015710979854 0.7163329050691327 0  1.077254105049741 1.873044405931742 0  1.477182186374218 0.7669362764052622 0  1.604355390029422 0.3138347014223712 0  3.357298773015283 1.292121771221682 0  2.642456732564144 1.122937069483146 0  2.827183673783701 0.6501131617032385 0  0.3000359809036467 0.4857081933782919 0  1.39080974675033 0.9003338946919665 0  2.693907172777001 0.8986988520891301 0  2.931442998585418 1.86469249778093 0  1.607564319358728 1.130938877124746 0  3.077810808817073 1.674470823983352 0  1.080472523982749 0.5815519813637883 0  3.088890913835956 0.8588454627236115 0  3.284214600296659 1.854479326042458 0  1.2873402129058 1.728774218841188 0  2.9013999795169 1.242110306871886 0  0.8761001761669315 1.679172777133284 0  1.219550944192924 1.860427700898438 0  0.5165446672830528 0.1507081055534605 0  0.4929450837918542 0.2984926303907968 0  0.6053481855006131 0.388156428045367 0  1.229670648686675 0.1445228097338785 0  2.074781746031746 1.521468253968254 0  2.128472222222222 1.319444444444444 0  0.8190857636454005 1.871527777777778 0  1.19016415713109 0.373667921434455 0  2.522705049795049 1.642089900409902 0  2.5625 1.875 0  1 0.3125 0  3.875 1.4375 0  3.854421179608893 1.271342359217786 0  3.875 2 0  3.252895074367309 1.717720366266284 0  3.339445936751456 1.603038018552652 0  3.482215988057832 1.614109768761893 0  2.408003729780754 1.243076190508459 0  3.355663254605069 0.1386374657746271 0  0.625 0 0  3.739816599856081 0.4464807305048627 0  2.696925297991427 0.6967143210263376 0  0.7382134072506095 0.3413923519609702 0  0.6975123597992916 0.1262897850255805 0  0.517492993476645 0.5524666371243673 0  1.125 0 0  3.225246433696271 0.8481228132984594 0  2.910439866484053 1.104659118790428 0  1.346838689382765 0.4025104968201652 0  2.648094909987562 1.589828726016094 0  1.932279840451773 1.249120455579388 0  3.614646585703633 0.6838796340683926 0  2.505502053701187 0.4828624056142278 0  1.74173389467281 1.148311677154633 0  1.999851510882803 1.078582430205837 0  3.515990234791048 0.9168810411194217 0  2.319573569366616 1.882073569366616 0  3.87890625 1.68359375 0  1.625 2 0  3.375 2 0  3.4375 1.883729560522389 0  0.6980343576336376 1.408315550915699 0  1.749733229779213 1.862103198238473 0  1.543560459462408 1.710839018652099 0  0 0.875 0  0.9914745867414203 0.9222835981771756 0  3.869047619047619 0.6922933184737153 0  0.351025727780003 1.528728843746343 0  1.119959354294166 1.573963676456541 0  1.79099212
[...]
<PointData  Scalars="U"> 
<DataArray  type="Float64"  Name="U"  format="ascii">7.6677474766785103e-02  0.0000000000000000e+00  2.5771504264083756e-19  7.6677474766785103e-02  0.0000000000000000e+00  7.6677474766785117e-02  3.3462228795755571e-19  7.6677474766785103e-02  5.7508106075088820e-02  1.4010665801823488e-02  7.6677474766785103e-02  0.0000000000000000e+00  2.5470720175124872e-02  1.4279826050596085e-02  3.9510815202370472e-02  2.7220515886838284e-02  6.8916153179991571e-02  7.8914020125221505e-03  0.0000000000000000e+00  4.2325785897793254e-02  7.6677474766785103e-02  0.0000000000000000e+00  1.1230964797281463e-02  0.0000000000000000e+00  8.0831002003698450e-03  5.4616648903408609e-02  4.7341334406617454e-02  8.6122743949030960e-03  2.5370099705740144e-02  2.0000843608073984e-02  7.6677474766785117e-02  4.2723136012793331e-02  0.0000000000000000e+00  3.3546395210468483e-02  7.1885132593861020e-02  7.6677474766785103e-02  7.6677474766785103e-02  4.9275292883116738e-02  1.0871539914690517e-02  7.9198358744363793e-03  3.7646522057870342e-02  8.2591480488931369e-03  3.3051137707496660e-02  5.2791434892341726e-02  5.1536114588384807e-02  2.3368029462405415e-02  1.4540817369368153e-02  2.4126301755943928e-02  5.1973491419616213e-02  8.9478593301921937e-03  5.4909306251833760e-02  6.6422389111419775e-02  7.4428137783676518e-02  1.6550751671013920e-02  7.7797207094043849e-02  7.3466948965096443e-03  1.2020644287146826e-02  0.0000000000000000e+00  6.0958642829263034e-02  4.1136971583195896e-02  6.8704939949120860e-03  1.0603964991601225e-02  5.6983122802043623e-02  5.3851426528034173e-02  2.9963632336930252e-02  3.6990207171432332e-19  8.8101812769061719e-03  1.6132734169290720e-02  7.3362179986225214e-03  9.9605694791856294e-03  6.9064981449055610e-02  1.5993149634405384e-02  3.7547319224755495e-02  2.8231297558900401e-02  6.1595575776181549e-02  2.9918089540811873e-02  1.2380388027729484e-02  5.9120675082263416e-02  7.6677474766785103e-02  1.4486119018147307e-02  1.5595461770783279e-02  3.3430259767228222e-02  1.7971283148465255e-02  2.1086225522438086e-02  2.3543990520470161e-02  7.6677474766785117e-02  0.0000000000000000e+00  1.9706969803633911e-02  6.1263664543648934e-02  7.6677474766785117e-02  2.0138917037679754e-02  6.1879885428862934e-02  8.2524432196145938e-03  7.6677474766785103e-02  7.6677474766785103e-02  0.0000000000000000e+00  0.0000000000000000e+00  2.9646442276839117e-19  7.6677474766785103e-02  6.5894704877705934e-02  8.7927105367682345e-03  4.6725336186009672e-02  0.0000000000000000e+00  0.0000000000000000e+00  7.6677474766785117e-02  7.5479389223554072e-02  6.6056835028359762e-03  6.4533738781699629e-02  2.5106891398454630e-02  7.6677474766785103e-02  8.0681165390401703e-03  6.5725707901000768e-02  4.3576574248074776e-02  7.3528170343779814e-02  3.3830703004136632e-02  2.9716688287989818e-02  1.8573804899780590e-02  3.5106160701931247e-02  4.4195438394153991e-02  9.5563284233149276e-03  1.2980319919639180e-02  4.1239748959558793e-02  7.7619984603376352e-02  1.7019994911284947e-02  3.3066535553769157e-02  4.2889913051422299e-02  4.1887216192856784e-02  3.3367436028613945e-02  8.0092935944487877e-03  9.4080030767307397e-03  7.9732646318738509e-03  6.1721827239104897e-03  8.2265426770633410e-03  4.5912841053724257e-02  9.9610470618133867e-03  6.5466591905836577e-02  6.5364593102363894e-02  6.7654859126136738e-02  7.5984714255834364e-03  4.3660186049211847e-02  5.9317724278642077e-02  5.7466492562942104e-02  4.8309599369999373e-02  5.4010625510072571e-03  1.4194965242402905e-02  4.7138946485118211e-02  6.3683334099864583e-02  2.2099233250917397e-02  3.0911394230805422e-02  6.6157784337960823e-02  6.4698835829295240e-02  4.2598427900393303e-02  2.5781415376863077e-02  2.1984524864640795e-02  7.3696753915610536e-02  1.0794725690285679e-02  7.1600953189110500e-02  5.6679536043170000e-03  1.8966599048843073e-02  6.6478504616722556e-02  3.5223617052938208e-02  1.5693678676222081e-02  1.5944963567735792e-02  1.6430955563234671e-02  8.3173317463341914e-03  7.6819549210022488e-03  5.7690226474991580e-03  4.6872815829283928e-03  7.5751235073346773e-03  5.6653227733108680e-03  1.3745117888681685e-02  5.1478573121431698e-02  8.0056104289057701e-03  9.1379356281620638e-03  7.5071209338221659e-02  7.6275606137626545e-02  1.0728607703977090e-02  2.9970783473272745e-02  5.0760430078130294e-03  6.0147790467978454e-02  6.4782748785213076e-02  7.3231014326952020e-03  7.2260007980915614e-02  1.3606179172188263e-02  1.8886117191217567e-02  6.6290023617240814e-03  6.0005703579826701e-02  5.4907592334031183e-02  9.5325843099566925e-03  7.8404622171090163e-02  1.3335305460293163e-02  8.9571254373474133e-03  1.7052474624987414e-02  7.6377953380977345e-02  7.6677474766785117e-02  7.8317871391578350e-02  4.4607616351852959e-02  3.6371869675369109e-02  5.8057317047294568e-02  3.8852146541787619e-02  1.3122811266885949e-02  5.7671381695316486e-02  3.0439914910966454e-02  7.6677474766785089e-02  6.6645447575987782e-02  9.4375938920564350e-03  1.3584351371294412e-02  6.8367453553262195e-02  2.3353113647973257e-02  3.6885813621731309e-02  6.4285780195191600e-02  4.7680671896306079e-02  7.5594562647348044e-03  4.4033954739778038e-02  5.0310761885682355e-03  1.2522127983982570e-02  1.0898561824740473e-02  3.2641384151732969e-02  5.1613258894511911e-02  4.1558461868346087e-02  5.5049849426071461e-02  7.7213458692557399e-02  1.1049828714000362e-02  2.0571062528050261e-02  7.0898339130584340e-02  6.9635403999769238e-02  8.8117711183238311e-03  4.5535526957998854e-02  5.1818698375531436e-02  5.3445099912623209e-02  1.9926213374201630e-02  3.9688450389448522e-02  1.1423788932100543e-02  6.9731035926200099e-02  7.0380234347867179e-02  2.0148619768396266e-02  0.0000000000000000e+00  2.0065557359096643e-02  2.4474651386972197e-02  3.3945556801802862e-02  7.7785628663010866e-03  7.7048342772944797e-03  4.9769671791036500e-03  8.1830605467634408e-03  3.1802299520465656e-02  2.0169135115873177e-02  1.3257203556506942e-02  1.5537448018835359e-02  1.3014526825158856e-02  7.4311505700928288e-02  2.0177938359808394e-02  1.1540824500978250e-02  2.8023499451552726e-02  1.9297303611379369e-02  8.6310647295913829e-03  3.6115988696837173e-02  2.4964309452095070e-02  1.1812974201108467e-02  6.9115490171330868e-02  2.8392085502009456e-02  5.5827710912842450e-02  2.5565192388172505e-02  1.0713326233379679e-02  6.8504868075397657e-02  6.6801354340217264e-02  2.5245518489234463e-02  7.0770601758525453e-02  7.2986713133404671e-02  1.3497975993870332e-02  2.4183196430252865e-02  2.8274036594723478e-02  8.6250089275536485e-03  4.6267701363818844e-02  3.2278540678923003e-02  7.6167011816911420e-02  1.7901442060793950e-02  5.3773998714428568e-02  6.9964083656323811e-02  1.8687691869933784e-02  3.7816858937912930e-02  2.6688891633609324e-02  7.6677474766785117e-02  5.9028780438380522e-02  5.0293583538344573e-02  5.1141760166853074e-02  2.6289346866259011e-02  4.5610344212455092e-03  6.1731311021020717e-19  7.7853887397029385e-03  9.0035266296287150e-03  2.3966590124695913e-02  1.0663461432008539e-02  3.7497517350692580e-02  6.6924457591511142e-19  1.0418511395022286e-02  1.8341904063247955e-02  1.6286200332838202e-02  4.9635301634795966e-02  2.9681366116247741e-02  8.4979196206310219e-03  8.6198402102513356e-03  2.6854202572351969e-02  2.0826822819770489e-02  1.1870998016341614e-02  7.0492144135527818e-02  5.6353616684569209e-02  7.6677474766785103e-02  7.6677474766785117e-02  7.0282171046222031e-02  6.4665118125615220e-02  7.0508345444072057e-02  6.3192125126804957e-02  5.2416242516356994e-02  3.7092343498110004e-02  8.4833596321943084e-03  7.4691575372866220e-02  6.1674381923481673e-02  1.2094500846174139e-02  4.2242315160452223e-03  1.2640574433192443e-18  6.7843771915000956e-03  5.2635703366727907e-03  8.1091275246830199e-03  9.3395480472025262e-03  2.5965869985043192e-02  1.5709817346311279e-02  8.2338806582005191e-03  0.0000000000000000e+00  9.2851629600403801e-03  7.4944656760369714e-19  5.6499912524766445e-02  4.8509791887373359e-02  4.1261021785550162e-02  8.1495591644625085e-03  5.1138954621621463e-02  </DataArray> 
</PointData> 
</Piece>
</UnstructuredGrid>
</VTKFile>