<?xml version="1.0"?>
<VTKFile type="UnstructuredGrid"  version="0.1"  >
<UnstructuredGrid>
<Piece  NumberOfPoints="65" NumberOfCells="64">
<Points>
<DataArray  type="Float64"  NumberOfComponents="3"  format="ascii">0 0 0  0.0625 0 0  0.125 0 0  0.1875 0 0  0.25 0 0  0.3125 0 0  0.375 0 0  0.4375 0 0  0.5 0 0  0.5625 0 0  0.625 0 0  0.6875 0 0  0.75 0 0  0.8125 0 0  0.875 0 0  0.9375 0 0  1 0 0  1.0625 0 0  1.125 0 0  1.1875 0 0  1.25 0 0  1.3125 0 0  1.375 0 0  1.4375 0 0  1.5 0 0  1.5625 0 0  1.625 0 0  1.6875 0 0  1.75 0 0  1.8125 0 0  1.875 0 0  1.9375 0 0  2 0 0  2.0625 0 0  2.125 0 0  2.1875 0 0  2.25 0 0  2.3125 0 0  2.375 0 0  2.4375 0 0  2.5 0 0  2.5625 0 0  2.625 0 0  2.6875 0 0  2.75 0 0  2.8125 0 0  2.875 0 0  2.9375 0 0  3 0 0  3.0625 0 0  3.125 0 0  3.1875 0 0  3.25 0 0  3.3125 0 0  3.375 0 0  3.4375 0 0  3.5 0 0  3.5625 0 0  3.625 0 0  3.6875 0 0  3.75 0 0  3.8125 0 0  3.875 0 0  3.9375 0 0  4 0 0  </DataArray>
</Points>
<Cells>
<DataArray  type="UInt32"  Name="connectivity"  format="ascii">0 1  1 2  2 3  3 4  4 5  5 6  6 7  7 8  8 9  9 10  10 11  11 12  12 13  13 14  14 15  15 16  16 17  17 18  18 19  19 20  20 21  21 22  22 23  23 24  24 25  25 26  26 27  27 28  28 29  29 30  30 31  31 32  32 33  33 34  34 35  35 36  36 37  37 38  38 39  39 40  40 41  41 42  42 43  43 44  44 45  45 46  46 47  47 48  48 49  49 50  50 51  51 52  52 53  53 54  54 55  55 56  56 57  57 58  58 59  59 60  60 61  61 62  62 63  63 64  </DataArray>
<DataArray  type="UInt32"  Name="offsets"  format="ascii">2 4 6 8 10 12 14 16 18 20 22 24 26 28 30 32 34 36 38 40 42 44 46 48 50 52 54 56 58 60 62 64 66 68 70 72 74 76 78 80 82 84 86 88 90 92 94 96 98 100 102 104 106 108 110 112 114 116 118 120 122 124 126 128 </DataArray>
<DataArray  type="UInt8"  Name="types"  format="ascii">3 3 3 3 3 3 3 3 3 3 3 3 3 3 3 3 3 3 3 3 3 3 3 3 3 3 3 3 3 3 3 3 3 3 3 3 3 3 3 3 3 3 3 3 3 3 3 3 3 3 3 3 3 3 3 3 3 3 3 3 3 3 3 3 </DataArray>
</Cells>
<PointData  Scalars="U"> 
<DataArray  type="Float64"  Name="U"  format="ascii">0.0000000000000000e+00  4.9449479283000764e-04  3.8742082289146311e-04  -1.2516833661193959e-04  -9.0586308910229382e-04  -1.8583550808046745e-03  -2.9151441725441814e-03  -4.0289213849582384e-03  -5.1665286579615803e-03  -6.3047257516731896e-03  -7.4272247519818401e-03  -8.5226098289969115e-03  -9.5828794031224112e-03  -1.0602425876329296e-02  -1.1577318770267384e-02  -1.2504803264804966e-02  -1.3382948952509195e-02  -1.4210402413083962e-02  -1.4986215455150002e-02  -1.5709723833288107e-02  -1.6380461558098903e-02  -1.6998102791733440e-02  -1.7562419610901353e-02  -1.8073252179036391e-02  -1.8530489802538849e-02  -1.8934055960266205e-02  -1.9283897992720105e-02  -1.9579981774541851e-02  -1.9822286405778756e-02  -2.0010801199168586e-02  -2.0145525618221111e-02  -2.0226468145470564e-02  -2.0253647222265837e-02  -2.0227094832123236e-02  -2.0146859381249920e-02  -2.0013011941153496e-02  -1.9825656496042975e-02  -1.9584941865092395e-02  -1.9291080970087863e-02  -1.8944379061985126e-02  -1.8545271332353952e-02  -1.8094378917810978e-02  -1.7592588772638671e-02  -1.7041166059835845e-02  -1.6441916197686993e-02  -1.5797414786343642e-02  -1.5111336994924071e-02  -1.4388927208669503e-02  -1.3637666445488037e-02  -1.2868229588272679e-02  -1.2095848416382331e-02  -1.1342253927555499e-02  -1.0638451783187281e-02  -1.0028680518726909e-02  -9.5760597850621850e-03  -9.3706457644836729e-03  -9.5409278616078643e-03  -1.0270234245875027e-02  -1.1820133837327454e-02  -1.4563828323731652e-02  -1.9033795472327645e-02  -2.5989763723983997e-02  -3.6515699421808892e-02  -5.2158186435648832e-02  -7.5123867089413557e-02  </DataArray> 
</PointData> 
</Piece>
</UnstructuredGrid>
</VTKFile>