<?xml version="1.0"?>
<VTKFile type="UnstructuredGrid"  version="0.1"  >
<UnstructuredGrid>
<Piece  NumberOfPoints="65" NumberOfCells="64">
<Points>
<DataArray  type="Float64"  NumberOfComponents="3"  format="ascii">0 0 0  0.0625 0 0  0.125 0 0  0.1875 0 0  0.25 0 0  0.3125 0 0  0.375 0 0  0.4375 0 0  0.5 0 0  0.5625 0 0  0.625 0 0  0.6875 0 0  0.75 0 0  0.8125 0 0  0.875 0 0  0.9375 0 0  1 0 0  1.0625 0 0  1.125 0 0  1.1875 0 0  1.25 0 0  1.3125 0 0  1.375 0 0  1.4375 0 0  1.5 0 0  1.5625 0 0  1.625 0 0  1.6875 0 0  1.75 0 0  1.8125 0 0  1.875 0 0  1.9375 0 0  2 0 0  2.0625 0 0  2.125 0 0  2.1875 0 0  2.25 0 0  2.3125 0 0  2.375 0 0  2.4375 0 0  2.5 0 0  2.5625 0 0  2.625 0 0  2.6875 0 0  2.75 0 0  2.8125 0 0  2.875 0 0  2.9375 0 0  3 0 0  3.0625 0 0  3.125 0 0  3.1875 0 0  3.25 0 0  3.3125 0 0  3.375 0 0  3.4375 0 0  3.5 0 0  3.5625 0 0  3.625 0 0  3.6875 0 0  3.75 0 0  3.8125 0 0  3.875 0 0  3.9375 0 0  4 0 0  </DataArray>
</Points>
<Cells>
<DataArray  type="UInt32"  Name="connectivity"  format="ascii">0 1  1 2  2 3  3 4  4 5  5 6  6 7  7 8  8 9  9 10  10 11  11 12  12 13  13 14  14 15  15 16  16 17  17 18  18 19  19 20  20 21  21 22  22 23  23 24  24 25  25 26  26 27  27 28  28 29  29 30  30 31  31 32  32 33  33 34  34 35  35 36  36 37  37 38  38 39  39 40  40 41  41 42  42 43  43 44  44 45  45 46  46 47  47 48  48 49  49 50  50 51  51 52  52 53  53 54  54 55  55 56  56 57  57 58  58 59  59 60  60 61  61 62  62 63  63 64  </DataArray>
<DataArray  type="UInt32"  Name="offsets"  format="ascii">2 4 6 8 10 12 14 16 18 20 22 24 26 28 30 32 34 36 38 40 42 44 46 48 50 52 54 56 58 60 62 64 66 68 70 72 74 76 78 80 82 84 86 88 90 92 94 96 98 100 102 104 106 108 110 112 114 116 118 120 122 124 126 128 </DataArray>
<DataArray  type="UInt8"  Name="types"  format="ascii">3 3 3 3 3 3 3 3 3 3 3 3 3 3 3 3 3 3 3 3 3 3 3 3 3 3 3 3 3 3 3 3 3 3 3 3 3 3 3 3 3 3 3 3 3 3 3 3 3 3 3 3 3 3 3 3 3 3 3 3 3 3 3 3 </DataArray>
</Cells>
<PointData  Scalars="U"> 
<DataArray  type="Float64"  Name="U"  format="ascii">0.0000000000000000e+00  -1.8190316767157121e-02  -4.1183463752592110e-02  -6.8335365282926330e-02  -9.9016010113427963e-02  -1.3261597283515941e-01  -1.6855225918818750e-01  -2.0627330920650375e-01  -2.4526303716523429e-01  -2.8504383667331507e-01  -3.2517852939977115e-01  -3.6527128346209031e-01  -4.0496756953258922e-01  -4.4395325701328131e-01  -4.8195297779098023e-01  -5.1872790056721596e-01  -5.5407306482090468e-01  -5.8781442104563697e-01  -6.1980571445797816e-01  -6.4992533466490288e-01  -6.7807323569861999e-01  -7.0416801122148720e-01  -7.2814419023860999e-01  -7.4994980072569128e-01  -7.6954423325881860e-01  -7.8689642476332211e-01  -8.0198337430832745e-01  -8.1478899861032295e-01  -8.2530333448321458e-01  -8.3352209859405502e-01  -8.3944662108944879e-01  -8.4308417832103022e-01  -8.4444876022312843e-01  -8.4356231889479372e-01  -8.4045655540493425e-01  -8.3517531031991266e-01  -8.2777762823576873e-01  -8.1834156573112471e-01  -8.0696880351697842e-01  -7.9379010497400482e-01  -7.7897163271535119e-01  -7.6272209069376695e-01  -7.4530060084458771e-01  -7.2702515061391837e-01  -7.0828136277196252e-01  -6.8953124530255094e-01  -6.7132148258431024e-01  -6.5429073728495069e-01  -6.3917535493035527e-01  -6.2681281077843143e-01  -6.1814222256992735e-01  -6.1420128325770229e-01  -6.1611905301986614e-01  -6.2510419414608720e-01  -6.4242843514448722e-01  -6.6940530504981877e-01  -7.0736447240891753e-01  -7.5762233666384637e-01  -8.2144982857744986e-01  -9.0003865387974802e-01  -9.9446743300699103e-01  -1.1056693248477705e+00  -1.2344027546784750e+00  -1.3812267851846938e+00  -1.5464824740576240e+00  </DataArray> 
</PointData> 
</Piece>
</UnstructuredGrid>
</VTKFile>