<?xml version="1.0"?>
<VTKFile type="UnstructuredGrid"  version="0.1"  >
<UnstructuredGrid>
<Piece  NumberOfPoints="65" NumberOfCells="64">
<Points>
<DataArray  type="Float64"  NumberOfComponents="3"  format="ascii">0 0 0  0.0625 0 0  0.125 0 0  0.1875 0 0  0.25 0 0  0.3125 0 0  0.375 0 0  0.4375 0 0  0.5 0 0  0.5625 0 0  0.625 0 0  0.6875 0 0  0.75 0 0  0.8125 0 0  0.875 0 0  0.9375 0 0  1 0 0  1.0625 0 0  1.125 0 0  1.1875 0 0  1.25 0 0  1.3125 0 0  1.375 0 0  1.4375 0 0  1.5 0 0  1.5625 0 0  1.625 0 0  1.6875 0 0  1.75 0 0  1.8125 0 0  1.875 0 0  1.9375 0 0  2 0 0  2.0625 0 0  2.125 0 0  2.1875 0 0  2.25 0 0  2.3125 0 0  2.375 0 0  2.4375 0 0  2.5 0 0  2.5625 0 0  2.625 0 0  2.6875 0 0  2.75 0 0  2.8125 0 0  2.875 0 0  2.9375 0 0  3 0 0  3.0625 0 0  3.125 0 0  3.1875 0 0  3.25 0 0  3.3125 0 0  3.375 0 0  3.4375 0 0  3.5 0 0  3.5625 0 0  3.625 0 0  3.6875 0 0  3.75 0 0  3.8125 0 0  3.875 0 0  3.9375 0 0  4 0 0  </DataArray>
</Points>
<Cells>
<DataArray  type="UInt32"  Name="connectivity"  format="ascii">0 1  1 2  2 3  3 4  4 5  5 6  6 7  7 8  8 9  9 10  10 11  11 12  12 13  13 14  14 15  15 16  16 17  17 18  18 19  19 20  20 21  21 22  22 23  23 24  24 25  25 26  26 27  27 28  28 29  29 30  30 31  31 32  32 33  33 34  34 35  35 36  36 37  37 38  38 39  39 40  40 41  41 42  42 43  43 44  44 45  45 46  46 47  47 48  48 49  49 50  50 51  51 52  52 53  53 54  54 55  55 56  56 57  57 58  58 59  59 60  60 61  61 62  62 63  63 64  </DataArray>
<DataArray  type="UInt32"  Name="offsets"  format="ascii">2 4 6 8 10 12 14 16 18 20 22 24 26 28 30 32 34 36 38 40 42 44 46 48 50 52 54 56 58 60 62 64 66 68 70 72 74 76 78 80 82 84 86 88 90 92 94 96 98 100 102 104 106 108 110 112 114 116 118 120 122 124 126 128 </DataArray>
<DataArray  type="UInt8"  Name="types"  format="ascii">3 3 3 3 3 3 3 3 3 3 3 3 3 3 3 3 3 3 3 3 3 3 3 3 3 3 3 3 3 3 3 3 3 3 3 3 3 3 3 3 3 3 3 3 3 3 3 3 3 3 3 3 3 3 3 3 3 3 3 3 3 3 3 3 </DataArray>
</Cells>
<PointData  Scalars="U"> 
<DataArray  type="Float64"  Name="U"  format="ascii">0.0000000000000000e+00  -7.7014052515413975e-02  -1.5497695925855245e-01  -2.3364043991319430e-01  -3.1275813772166816e-01  -3.9208659158685211e-01  -4.7138619840177376e-01  -5.5042216226710039e-01  -6.2896542726872318e-01  -7.0679359050189616e-01  -7.8369179204432604e-01  -8.5945357859755556e-01  -9.3388173753334469e-01  -1.0067890980990579e+00  -1.0779992965530589e+00  -1.1473475020178125e+00  -1.2146810998551338e+00  -1.2798603293855610e+00  -1.3427588727933348e+00  -1.4032643920815686e+00  -1.4612790109710418e+00  -1.5167197386731830e+00  -1.5695188325163476e+00  -1.6196240964678075e+00  -1.6669991126758321e+00  -1.7116234032608566e+00  -1.7534925197162570e+00  -1.7926180574419432e+00  -1.8290275931320230e+00  -1.8627645429751158e+00  -1.8938879399061206e+00  -1.9224721284743556e+00  -1.9486063762673969e+00  -1.9723944012541339e+00  -1.9939538148851592e+00  -2.0134154813130478e+00  -2.0309227936676977e+00  -2.0466308689397494e+00  -2.0607056636839389e+00  -2.0733230134484399e+00  -2.0846675995590522e+00  -2.0949318476302761e+00  -2.1043147629296550e+00  -2.1130207084769648e+00  -2.1212581325046478e+00  -2.1292382526284923e+00  -2.1371737047655519e+00  -2.1452771654771379e+00  -2.1537599569957977e+00  -2.1628306447042820e+00  -2.1726936372599059e+00  -2.1835477998885948e+00  -2.1955850915995483e+00  -2.2089892371855728e+00  -2.2239344448689162e+00  -2.2405841803230819e+00  -2.2590900075445681e+00  -2.2795905066640407e+00  -2.3022102782753935e+00  -2.3270590432271536e+00  -2.3542308460695005e+00  -2.3838033694897844e+00  -2.4158373661098493e+00  -2.4503762129715803e+00  -2.4874455929164077e+00  </DataArray> 
</PointData> 
</Piece>
</UnstructuredGrid>
</VTKFile>