<?xml version="1.0"?>
<VTKFile type="UnstructuredGrid"  version="0.1"  >
<UnstructuredGrid>
<Piece  NumberOfPoints="335" NumberOfCells="604">
<Points>
<DataArray  type="Float64"  NumberOfComponents="3"  format="ascii">0 2 0  0 0 0  4 0 0  4 2 0  2 0 0  2 2 0  1 0 0  1 2 0  0 1 0  4 1 0  3 2 0  3 0 0  1.5 1 0  3 1 0  0.75 0.75 0  2.25 1.25 0  0.5625 1.4375 0  4 0.5 0  3.5 0 0  4 1.5 0  3.5 2 0  2.5 0 0  2.035714285714286 0.6428571428571428 0  1.5 0 0  3.416666666666667 0.5833333333333334 0  1.135869565217391 1.442934782608696 0  1.75 1.5 0  2.611201298701299 0.5693993506493507 0  3.5 1.25 0  1.25 0.5 0  2.5 2 0  2.75 1.5 0  0.5 0 0  0 0.5 0  0 1.5 0  0.5 2 0  1.5 2 0  3.196428571428572 1.589285714285714 0  1.75 0.3363095238095237 0  3.016488529250673 0.4286986695828525 0  1.075849239304906 1.022452282085282 0  2.25 0.308531746031746 0  0.4375 0.4375 0  2.375 1.625 0  0.359375 0.828125 0  0.875 0.375 0  2.579589900409902 0.9887697012297049 0  1.875 1.125 0  3.625 1.625 0  3.738095238095238 0.75 0  0.61328125 1.08203125 0  0.283203125 1.216238839285714 0  0.75 1.743055555555556 0  1.575774875167458 0.6496125624162709 0  0.30625 1.69375 0  3.677083333333333 0.3229166666666667 0  3.347222222222222 0.9305555555555556 0  2.75 0 0  1.426285733982903 1.650642866991451 0  1.441247178754399 1.322840772184865 0  3.307719501506081 0.2701504049770592 0  2.343107299193003 0.7600674782727458 0  2.041666666666667 1.666666666666667 0  0.8721051282065269 1.266059980878688 0  3.017857142857143 1.321428571428571 0  0.25 0 0  3.124094139334942 0.7176929188969303 0  2.133642051592332 0.9740738452230051 0  2.744869578259833 0.3003660856503637 0  2.795144003253926 0.7941412087465988 0  1.143043947544775 1.739786699825343 0  1.808516825619384 0.8349817990159853 0  2.006944444444445 1.388888888888889 0  2.545410099590098 1.284179800819803 0  2.625 1.75 0  1.049150760695094 0.7233015213901878 0  1.458640484663616 0.2918202423318081 0  2.938492063492064 1.718253968253968 0  1.75 2 0  1.125 0.25 0  3.708891369047619 1.042782738095238 0  3.75 1.375 0  0 0.25 0  2.785310692237909 1.162254590955012 0  1.323940624311342 0.7684841149566988 0  2.25 2 0  0.75 0 0  0.6335227272727273 0.2471590909090909 0  4 1.75 0  3.75 2 0  3.210459183673469 1.149518140589569 0  3.398166023166023 1.757722007722008 0  1.996445105820106 0.2584325396825397 0  2.75 2 0  1.25 2 0  3.25 0 0  3.75 0 0  1.25 0 0  0.75 2 0  0 1.25 0  4 0.75 0  0 0.75 0  2.25 0 0  1.75 0 0  0.25 2 0  0 1.75 0  4 0.25 0  1.669430850940762 1.75 0  4 1.25 0  3.25 2 0  2.498111965552158 0.3454883412923062 0  0.8003899450697071 1.501828266030458 0  0.2153532608695652 0.625 0  0.2412533945605322 1.457575279565611 0  1.678090669413954 1.267696889804651 0  0.2053571428571428 0.375 0  0.375 0.2050382653061225 0  1.294175302171828 1.12930909293974 0  0.835161298469517 0.9792300199580364 0  2.249446885750175 0.544013092708228 0  1.805072998422435 0.6005105219729567 0  3.420918367346939 1.48469387755102 0  0.5222222222222223 1.771527777777778 0  2.354573390699718 1.043404315840394 0  0.671875 0.515625 0  0.53515625 0.69140625 0  2.214583333333334 1.470138888888889 0  3.231892178836853 1.372190928394479 0  3.639880952380952 0.5461309523809526 0  3.51660541173964 0.7838766379034835 0  3.210840504937081 0.5208629907674649 0  2.950588740601899 0.2165668709345833 0  2.815233623969196 0.5030491785795254 0  1.083528949974407 1.235881015826932 0  2.585211668467502 0.778316879153453 0  3.143120343375446 1.805089893100097 0  0.9896521505025003 1.594981251830706 0  1.87957996989704 1.815676662903797 0  1.626600058535864 0.1681547619047618 0  2.953373015873016 1.514880952380952 0  0.2220850766736066 1.002711978499359 0  0.4224260205797096 1.01898022942029 0  0.5986328125 0.8818359375 0  2.375 0.154265873015873 0  0.8212256493506493 0.1845914502164502 0  3.8125 1.5625 0  3.78125 1.78125 0  1.0625 0.4375 0  0.8671875 0.5807291666666666 0  2.4375 1.8125 0  2.22275641025641 1.78525641025641 0  2.539794950204951 1.494384850614852 0  2.059027777777778 1.197916666666667 0  1.704515975736352 1.011452072790943 0  0.9470212454254227 1.801453052498988 0  1.918017502100738 0.4391265981339625 0  1.375 1.84391955596417 0  2.594123205043675 0.1732636966881334 0  1.611497372532367 0.8407251842095733 0  3.586538895025134 1.821085722175172 0  2.384120800622756 1.384496213629809 0  3.508505519670329 1.049676104119021 0  0.1820540335558793 0.1820974550765656 0  1.450689899973606 0.4924930565216958 0  2.969389279592704 0.610766185970977 0  3.479636682219977 0.3858866822199769 0  3.484790611891776 0.1926780268286212 0  3.125 0.1424398309976598 0  3.858534946236559 0.375 0  3.815049380551659 0.1843794300170415 0  2.8153725923641 0.9788695978190264 0  0.1761290113871636 0.8054315476190477 0  3.824210042675814 0.5563956403663389 0  2.427629910979513 0.5950983296204954 0  0.4637895652744943 1.595039565274494 0  0.1353316326530613 1.625 0  3.869047619047619 0.875 0  1.249564973844784 0.9439888838553999 0  2.125 0.1309601694653478 0  0.6730905143458559 1.271937037763694 0  0.4758841466846654 1.259926649442542 0  1.375 0.1311248731373872 0  0.6473533488434536 1.595737086442022 0  1.662034256815698 0.4924865966265944 0  3.869672512075917 1.125 0  1.832390038253737 0.1681547619047619 0  1.251129743036335 1.588661803950864 0  1.593890444587146 1.587672319401741 0  2.09822870286213 0.4099774202448945 0  0.3672041804298913 1.863236482119776 0  3.175675638845282 0.9756004164486307 0  3.312917483130068 0.7431390521815694 0  1.949346764610204 0.9553275675867292 0  0 1.875 0  0.125 2 0  0.1697704081632653 1.8125 0  1.250217015798098 1.303886758833925 0  1.835950419976561 1.346112776751352 0  0.9599823676558117 1.420119779128127 0  3.593112244897959 1.45280612244898 0  2.056540224487935 0.8167847786318049 0  1.813391518603679 1.658412378406144 0  2.717540968022779 1.325887924832463 0  2.875 2 0  2.790782176324345 1.823358911837828 0  2.96559571976349 0.7816340462561718 0  1.291066125893253 0.2769264367112843 0  2.058790178805516 1.838077939017356 0  3.673332592838314 1.215834814323372 0  0.9071956592137768 0.8220343607442596 0  0.1310120797546304 1.144290287522608 0  1.913874615570387 1.526312479062075 0  3.167986306711986 0.3602294831961773 0  1.587529998678765 1.414932407001446 0  3.649130568669384 0.1571119266068894 0  2.438436537601556 0.8981101131576004 0  2.184935068055161 0.7132002379880827 0  1.456235642937205 1.158801966988924 0  1.386503074512992 1.484584638506796 0  0.3867705968705845 0.6027444819728521 0  2.762778993639535 1.662639496819767 0  0.650390625 1.871527777777778 0  3.64596729502979 0.8886584698474683 0  3.045611599070008 1.158676339734206 0  0.3993538884374467 1.407167403628448 0  0.1516836018189417 1.317691898227368 0  2.374177243744587 0.44524900986925 0  0.9610399745072515 1.13343594717961 0  0.7717402898146146 1.133192846304489 0  2.217406840067589 1.627730408320619 0  3.374466497724555 1.144327478293632 0  3.102333217040289 1.462470750260982 0  0.9845991046279567 0.1639504476860216 0  4 1.875 0  1.536737024305362 1.842483914655334 0  2.494398952860155 1.128595263390141 0  3.375 0 0  1.35480793550772 0.615559550979754 0  1.200028215648868 0.6638952964742415 0  2.868522658058045 1.379123954802417 0  3.32987895819658 0.4227871628526512 0  2.886186525788335 0.3528756827196673 0  2.804013819276893 0.1511494444935829 0  2.680690785851866 0.4362020186265224 0  1.110915716469613 0.8685559166680689 0  2.214722448960161 1.102379401681194 0  2.276771166733366 0.9046523967228255 0  1.706689197955897 0.724037154727565 0  1.903015710979854 0.7163329050691327 0  1.077254105049741 1.873044405931742 0  1.477182186374218 0.7669362764052622 0  1.604355390029422 0.3138347014223712 0  3.357298773015283 1.292121771221682 0  2.642456732564144 1.122937069483146 0  2.827183673783701 0.6501131617032385 0  0.3000359809036467 0.4857081933782919 0  1.39080974675033 0.9003338946919665 0  2.693907172777001 0.8986988520891301 0  2.931442998585418 1.86469249778093 0  1.607564319358728 1.130938877124746 0  3.077810808817073 1.674470823983352 0  1.080472523982749 0.5815519813637883 0  3.088890913835956 0.8588454627236115 0  3.284214600296659 1.854479326042458 0  1.2873402129058 1.728774218841188 0  2.9013999795169 1.242110306871886 0  0.8761001761669315 1.679172777133284 0  1.219550944192924 1.860427700898438 0  0.5165446672830528 0.1507081055534605 0  0.4929450837918542 0.2984926303907968 0  0.6053481855006131 0.388156428045367 0  1.229670648686675 0.1445228097338785 0  2.074781746031746 1.521468253968254 0  2.128472222222222 1.319444444444444 0  0.8190857636454005 1.871527777777778 0  1.19016415713109 0.373667921434455 0  2.522705049795049 1.642089900409902 0  2.5625 1.875 0  1 0.3125 0  3.875 1.4375 0  3.854421179608893 1.271342359217786 0  3.875 2 0  3.252895074367309 1.717720366266284 0  3.339445936751456 1.603038018552652 0  3.482215988057832 1.614109768761893 0  2.408003729780754 1.243076190508459 0  3.355663254605069 0.1386374657746271 0  0.625 0 0  3.739816599856081 0.4464807305048627 0  2.696925297991427 0.6967143210263376 0  0.7382134072506095 0.3413923519609702 0  0.6975123597992916 0.1262897850255805 0  0.517492993476645 0.5524666371243673 0  1.125 0 0  3.225246433696271 0.8481228132984594 0  2.910439866484053 1.104659118790428 0  1.346838689382765 0.4025104968201652 0  2.648094909987562 1.589828726016094 0  1.932279840451773 1.249120455579388 0  3.614646585703633 0.6838796340683926 0  2.505502053701187 0.4828624056142278 0  1.74173389467281 1.148311677154633 0  1.999851510882803 1.078582430205837 0  3.515990234791048 0.9168810411194217 0  2.319573569366616 1.882073569366616 0  3.87890625 1.68359375 0  1.625 2 0  3.375 2 0  3.4375 1.883729560522389 0  0.6980343576336376 1.408315550915699 0  1.749733229779213 1.862103198238473 0  1.543560459462408 1.710839018652099 0  0 0.875 0  0.9914745867414203 0.9222835981771756 0  3.869047619047619 0.6922933184737153 0  0.351025727780003 1.528728843746343 0  1.119959354294166 1.573963676456541 0  1.79099212
[...]
<PointData  Scalars="ud"> 
<DataArray  type="Float64"  Name="ud"  format="ascii">0.0000000000000000e+00  0.0000000000000000e+00  0.0000000000000000e+00  0.0000000000000000e+00  -2.4261226388505337e+00  -2.4261226388505337e+00  -1.8195919791379003e+00  -1.8195919791379003e+00  1.0000000000000000e+00  1.0000000000000000e+00  -1.8195919791379003e+00  -1.8195919791379003e+00  -1.2744899739223752e+00  -8.1959197913790027e-01  -5.4091848304954393e-01  -1.4507144726184942e+00  -3.6419014280372486e-01  7.5000000000000000e-01  -1.0614286544971085e+00  7.5000000000000000e-01  -1.0614286544971085e+00  -2.2744899739223752e+00  -1.5529000232131451e+00  -2.2744899739223752e+00  -3.8246041206615167e-01  -1.1694044320867372e+00  -1.6382144726184942e+00  -1.3849597024145566e+00  -1.2392865449710855e-01  -1.3349491427621776e+00  -2.2744899739223752e+00  -1.3349491427621776e+00  -1.0614286544971085e+00  7.5000000000000000e-01  7.5000000000000000e-01  -1.0614286544971085e+00  -2.2744899739223752e+00  -9.0516723979121883e-01  -1.8286995208044354e+00  -1.1258106937671051e+00  -9.0861642657068875e-01  -1.8663428188643998e+00  -2.6174114541148730e-01  -1.7314542648284448e+00  1.7690483266601498e-01  -1.0491072726517321e+00  -1.2225002785772516e+00  -1.4322705972925238e+00  -2.1512761554686111e-01  3.4369135525866334e-01  -2.6650004378393466e-01  3.1480144253147135e-01  -1.0305500416915192e+00  -1.4397385183908380e+00  -1.6740317869602173e-01  -1.7863118589793314e-01  -3.3008734231577896e-01  -2.0849491427621776e+00  -1.6498203898298585e+00  -1.3409870711295255e+00  -9.2155661441567205e-01  -1.4122878762136244e+00  -1.8695140786774216e+00  -7.2531448905647788e-01  -9.0105308738167345e-01  -5.6862249348059379e-01  -7.3941528558385594e-01  -1.4159620467045335e+00  -1.5790884293630554e+00  -1.0850190536064988e+00  -1.5279868500063962e+00  -1.4311147099614696e+00  -1.5773279566235030e+00  -1.3264548024433567e+00  -1.7516965999002863e+00  -9.5431165870633694e-01  -1.7498851918570628e+00  -1.4077989979505598e+00  -2.3882144726184942e+00  -1.5242476025080487e+00  3.4330437417318949e-01  2.9075250651940621e-01  4.3750000000000000e-01  -1.0783939191490906e+00  -1.2025035971733411e+00  -2.3882144726184942e+00  -1.4784184830495439e+00  -8.6034155057433126e-01  4.3750000000000000e-01  -5.6862249348059379e-01  -5.5978265472096944e-01  -8.1457776365296841e-01  -1.9760372721589163e+00  -2.0849491427621776e+00  -2.0849491427621776e+00  -1.4784184830495439e+00  -5.6862249348059379e-01  -2.0849491427621776e+00  -1.4784184830495439e+00  9.3750000000000000e-01  9.3750000000000000e-01  9.3750000000000000e-01  -2.3882144726184942e+00  -2.3882144726184942e+00  -5.6862249348059379e-01  4.3750000000000000e-01  4.3750000000000000e-01  -1.9223434173400689e+00  9.3750000000000000e-01  -1.4784184830495439e+00  -1.7040184740017628e+00  -8.0511763796106406e-01  3.6503066721596222e-01  2.4061656681570731e-01  -1.4349321497476919e+00  1.3673172842067988e-01  -4.5646677517436007e-01  -1.1406768783361043e+00  -6.0358339016117668e-01  -1.5963060870562464e+00  -1.5626684178919317e+00  -4.3645992900837893e-01  -6.9681962238056183e-01  -1.3517521503584149e+00  -5.9087263484082264e-01  -2.1987913875762177e-01  -1.6192248987270661e+00  -6.4420306474759959e-01  -1.0317160595120223e-03  -7.7755643547709807e-02  -7.6643924842503108e-01  -1.4918175064154140e+00  -1.2699789260455916e+00  -9.7232575477022920e-01  -1.2675458541280982e+00  -1.2817241325968363e+00  -1.1609771471198389e+00  -2.0826557660766927e+00  -2.0335220755575674e+00  -1.1399371216109986e+00  4.9110218544256634e-01  8.3014020203349581e-02  -2.4896228257044761e-01  -2.0560954783740484e+00  -1.2482339498122852e+00  2.5001909872104722e-01  -1.1204244997714896e-01  -1.2094453012124771e+00  -8.2357161288941272e-01  -1.9701851297649124e+00  -2.0126539636463407e+00  -1.4938089720004268e+00  -1.4631803240277985e+00  -1.3732971064845496e+00  -1.3959501175914018e+00  -1.7366250403815688e+00  -1.9013968168390476e+00  -1.8955209165750491e+00  -1.3599448303689803e+00  -5.7360264219226464e-01  -1.4844671125285065e+00  -4.8375915674940040e-02  -9.0547332578021833e-02  -1.5006704133153623e+00  -1.0076592929510277e+00  -4.7536524441233430e-01  -7.4073199747174501e-01  -1.3938917161110544e+00  2.7830154124267054e-01  -9.3202367587595314e-02  -1.0233278595289639e+00  5.5364798303897922e-01  3.9547025358376481e-01  -1.4791533526929528e+00  -3.4881724182956575e-01  2.9215225949783780e-01  6.7706957079469043e-01  -1.0876904880580018e+00  -2.1718758243482208e+00  -4.3216066218445870e-01  -8.4756761631828770e-02  -1.9441405859808079e+00  -6.7128469638913790e-01  -1.6144140498530994e+00  6.7848660846273923e-01  -2.1010498129546589e+00  -1.4324989237497603e+00  -1.6714493423792780e+00  -1.7683969430925597e+00  -5.5427566617087876e-01  -5.8836328975317609e-01  -4.4659155504504888e-01  -1.4265620588731536e+00  2.3437500000000000e-01  -2.9378828829830683e-01  -5.4558659140392374e-02  -1.1774937164944674e+00  -1.5295935794146547e+00  -9.4657746125215125e-01  -9.1777190856260460e-02  -1.4577515008071624e+00  -1.8385084483221545e+00  -1.2200441455481652e+00  -1.9617476025080487e+00  -1.7247568067545265e+00  -9.0829224772602613e-01  -1.6441234478376232e+00  -2.1264009278217078e+00  2.2560399509116358e-01  -7.3346255815172934e-01  6.7173953261716102e-01  -1.6986284736582027e+00  -1.0080046716045228e+00  -1.4951015690906879e+00  -4.8704297487129933e-01  -1.3199128628928500e+00  -1.4876327997444081e+00  -1.2720019146149601e+00  -1.4326598244178426e+00  -5.4330198031385946e-03  -1.5123149202624695e+00  -1.0809207867184623e+00  2.0469834433242384e-01  -7.8817865609673132e-01  -3.7935154650036162e-02  5.4502384338578636e-01  -1.6489517854727769e+00  -7.8921558827552107e-01  -5.2883752739218581e-01  -1.7914999874904727e+00  -3.0112071877782143e-01  -9.0298306467633971e-01  -1.4997447410636446e+00  2.3437500000000000e-01  -2.0057326727534455e+00  -1.2944048945900422e+00  -1.2794006103313362e+00  -1.3214348816381634e+00  -1.1509367697335091e+00  -1.1123323643799723e+00  -6.8660049076877949e-01  -1.3685678852560073e+00  -1.7545853034307242e+00  -1.4629609195669357e+00  -9.6395537174061441e-01  -1.4086396418526599e+00  -1.3887521736446353e+00  -1.4500975541983814e+00  -1.5008846611331517e+00  -1.6718925861589904e+00  -1.3146531778502966e+00  -1.8020023868026929e+00  -3.9407061963901813e-01  -1.1908902359111124e+00  -1.1335352485811776e+00  6.2180706173818545e-02  -1.2109647014241953e+00  -1.1443357033196748e+00  -1.6475982094741186e+00  -1.3498584110941825e+00  -1.1764413359295354e+00  -1.0883810418655202e+00  -7.2689389394601822e-01  -1.1559628630909695e+00  -1.6491873002178727e+00  -9.9192058151164730e-01  -1.1212586035102210e+00  -1.7970202005078890e+00  -8.1266389713468279e-01  -5.4067398701870939e-01  -6.2074050144991821e-01  -1.7980441350099670e+00  -1.6946598715528887e+00  -1.5181565355380990e+00  -1.3398408595344371e+00  -1.4206310267682742e+00  -1.6726854270470226e+00  -1.9998375473008334e+00  -1.2922482291379003e+00  5.1480546170169317e-01  5.8603557350534274e-01  -2.9378828829830683e-01  -9.8914604517836002e-01  -7.0159148290569950e-01  -4.7072727996549513e-01  -1.3842413075190700e+00  -1.0533721425758287e+00  -1.2794006103313362e+00  1.0343891761425195e-01  -1.2235099460996439e+00  -8.9422593088987379e-01  -1.1605286521251714e+00  -2.9335927469927703e-01  -1.9617476025080487e+00  -5.3864801012397534e-01  -9.3432245096946842e-01  -1.5243584185759829e+00  -1.5192613039854477e+00  -1.4854020784969579e+00  5.5221409239967545e-02  -1.5385657399313488e+00  -1.4076625597117047e+00  -1.4322978238141837e+00  -3.9086630478207818e-02  -2.1422331024598837e+00  2.4780527804666147e-01  -2.3408292648284448e+00  -1.2794006103313362e+00  -9.5376182894481998e-01  -5.6470529143379522e-01  -2.1313554517079227e+00  -1.8050519383828203e+00  9.8437500000000000e-01  -8.1524588492555827e-01  5.9801116893877215e-01  -5.6449516496125063e-02  -1.2858162078130233e+00  -1.6800584808864421e+00  2.3437500000000000e-01  -2.9378828829830683e-01  -1.2654058346959558e+00  -2.1843556043671688e+00  -1.9307075848003199e+00  -1.9180366803517879e+00  -7.1273962071478503e-01  -4.2600300528104196e-01  -8.6282385478000212e-01  -2.9378828829830683e-01  2.3437500000000000e-01  -1.6584822726517321e+00  7.3238330611865865e-01  -3.9936908630905688e-01  -6.4592703686066366e-01  -1.9633409020334640e+00  -1.2875173007014342e+00  </DataArray> 
</PointData> 
</Piece>
</UnstructuredGrid>
</VTKFile>