<?xml version="1.0"?>
<VTKFile type="UnstructuredGrid"  version="0.1"  >
<UnstructuredGrid>
<Piece  NumberOfPoints="65" NumberOfCells="64">
<Points>
<DataArray  type="Float64"  NumberOfComponents="3"  format="ascii">0 0 0  0.0625 0 0  0.125 0 0  0.1875 0 0  0.25 0 0  0.3125 0 0  0.375 0 0  0.4375 0 0  0.5 0 0  0.5625 0 0  0.625 0 0  0.6875 0 0  0.75 0 0  0.8125 0 0  0.875 0 0  0.9375 0 0  1 0 0  1.0625 0 0  1.125 0 0  1.1875 0 0  1.25 0 0  1.3125 0 0  1.375 0 0  1.4375 0 0  1.5 0 0  1.5625 0 0  1.625 0 0  1.6875 0 0  1.75 0 0  1.8125 0 0  1.875 0 0  1.9375 0 0  2 0 0  2.0625 0 0  2.125 0 0  2.1875 0 0  2.25 0 0  2.3125 0 0  2.375 0 0  2.4375 0 0  2.5 0 0  2.5625 0 0  2.625 0 0  2.6875 0 0  2.75 0 0  2.8125 0 0  2.875 0 0  2.9375 0 0  3 0 0  3.0625 0 0  3.125 0 0  3.1875 0 0  3.25 0 0  3.3125 0 0  3.375 0 0  3.4375 0 0  3.5 0 0  3.5625 0 0  3.625 0 0  3.6875 0 0  3.75 0 0  3.8125 0 0  3.875 0 0  3.9375 0 0  4 0 0  </DataArray>
</Points>
<Cells>
<DataArray  type="UInt32"  Name="connectivity"  format="ascii">0 1  1 2  2 3  3 4  4 5  5 6  6 7  7 8  8 9  9 10  10 11  11 12  12 13  13 14  14 15  15 16  16 17  17 18  18 19  19 20  20 21  21 22  22 23  23 24  24 25  25 26  26 27  27 28  28 29  29 30  30 31  31 32  32 33  33 34  34 35  35 36  36 37  37 38  38 39  39 40  40 41  41 42  42 43  43 44  44 45  45 46  46 47  47 48  48 49  49 50  50 51  51 52  52 53  53 54  54 55  55 56  56 57  57 58  58 59  59 60  60 61  61 62  62 63  63 64  </DataArray>
<DataArray  type="UInt32"  Name="offsets"  format="ascii">2 4 6 8 10 12 14 16 18 20 22 24 26 28 30 32 34 36 38 40 42 44 46 48 50 52 54 56 58 60 62 64 66 68 70 72 74 76 78 80 82 84 86 88 90 92 94 96 98 100 102 104 106 108 110 112 114 116 118 120 122 124 126 128 </DataArray>
<DataArray  type="UInt8"  Name="types"  format="ascii">3 3 3 3 3 3 3 3 3 3 3 3 3 3 3 3 3 3 3 3 3 3 3 3 3 3 3 3 3 3 3 3 3 3 3 3 3 3 3 3 3 3 3 3 3 3 3 3 3 3 3 3 3 3 3 3 3 3 3 3 3 3 3 3 </DataArray>
</Cells>
<PointData  Scalars="U"> 
<DataArray  type="Float64"  Name="U"  format="ascii">0.0000000000000000e+00  -8.3190288455386712e-03  -2.1939925678027637e-02  -4.0092617226079270e-02  -6.2031416087199316e-02  -8.7045812919876911e-02  -1.1446961392334980e-01  -1.4368808520908832e-01  -1.7414291647525321e-01  -2.0533497035632214e-01  -2.3682492576835545e-01  -2.6823204121497157e-01  -2.9923134921956679e-01  -3.2954964232806994e-01  -3.5896062543710133e-01  -3.8727959310288446e-01  -4.1435795094837347e-01  -4.4007784539253003e-01  -4.6434710367854543e-01  -4.8709462357496064e-01  -5.0826629458111172e-01  -5.2782148359057490e-01  -5.4573007961043174e-01  -5.6197006468190469e-01  -5.7652556089045714e-01  -5.8938529490527369e-01  -6.0054142016619849e-01  -6.0998864096693739e-01  -6.1772359082009676e-01  -6.2374442854410106e-01  -6.2805062880887708e-01  -6.3064295914756363e-01  -6.3152365276768607e-01  -6.3069680621410207e-01  -6.2816905350278895e-01  -6.2395059415244247e-01  -6.1805668169057948e-01  -6.1050971122486464e-01  -6.0134207815708296e-01  -5.9060001240496074e-01  -5.7834861928442960e-01  -5.6467837330235104e-01  -5.4971330638271920e-01  -5.3362109769893618e-01  -5.1662519761044823e-01  -4.9901899296933538e-01  -4.8118183752678745e-01  -4.6359652668234586e-01  -4.4686749576245061e-01  -4.3173868159533840e-01  -4.1910963737464091e-01  -4.1004817283561501e-01  -4.0579755884934626e-01  -4.0777624693383108e-01  -4.1756816702504312e-01  -4.3690202555630897e-01  -4.6761865051658463e-01  -5.1162630593699554e-01  -5.7084496893123593e-01  -6.4714172982780505e-01  -7.4226060758286505e-01  -8.5775101748005722e-01  -9.9489973876664239e-01  -1.1546713880575423e+00  -1.3376620443264706e+00  </DataArray> 
</PointData> 
</Piece>
</UnstructuredGrid>
</VTKFile>