<?xml version="1.0"?>
<VTKFile type="UnstructuredGrid"  version="0.1"  >
<UnstructuredGrid>
<Piece  NumberOfPoints="65" NumberOfCells="64">
<Points>
<DataArray  type="Float64"  NumberOfComponents="3"  format="ascii">0 0 0  0.0625 0 0  0.125 0 0  0.1875 0 0  0.25 0 0  0.3125 0 0  0.375 0 0  0.4375 0 0  0.5 0 0  0.5625 0 0  0.625 0 0  0.6875 0 0  0.75 0 0  0.8125 0 0  0.875 0 0  0.9375 0 0  1 0 0  1.0625 0 0  1.125 0 0  1.1875 0 0  1.25 0 0  1.3125 0 0  1.375 0 0  1.4375 0 0  1.5 0 0  1.5625 0 0  1.625 0 0  1.6875 0 0  1.75 0 0  1.8125 0 0  1.875 0 0  1.9375 0 0  2 0 0  2.0625 0 0  2.125 0 0  2.1875 0 0  2.25 0 0  2.3125 0 0  2.375 0 0  2.4375 0 0  2.5 0 0  2.5625 0 0  2.625 0 0  2.6875 0 0  2.75 0 0  2.8125 0 0  2.875 0 0  2.9375 0 0  3 0 0  3.0625 0 0  3.125 0 0  3.1875 0 0  3.25 0 0  3.3125 0 0  3.375 0 0  3.4375 0 0  3.5 0 0  3.5625 0 0  3.625 0 0  3.6875 0 0  3.75 0 0  3.8125 0 0  3.875 0 0  3.9375 0 0  4 0 0  </DataArray>
</Points>
<Cells>
<DataArray  type="UInt32"  Name="connectivity"  format="ascii">0 1  1 2  2 3  3 4  4 5  5 6  6 7  7 8  8 9  9 10  10 11  11 12  12 13  13 14  14 15  15 16  16 17  17 18  18 19  19 20  20 21  21 22  22 23  23 24  24 25  25 26  26 27  27 28  28 29  29 30  30 31  31 32  32 33  33 34  34 35  35 36  36 37  37 38  38 39  39 40  40 41  41 42  42 43  43 44  44 45  45 46  46 47  47 48  48 49  49 50  50 51  51 52  52 53  53 54  54 55  55 56  56 57  57 58  58 59  59 60  60 61  61 62  62 63  63 64  </DataArray>
<DataArray  type="UInt32"  Name="offsets"  format="ascii">2 4 6 8 10 12 14 16 18 20 22 24 26 28 30 32 34 36 38 40 42 44 46 48 50 52 54 56 58 60 62 64 66 68 70 72 74 76 78 80 82 84 86 88 90 92 94 96 98 100 102 104 106 108 110 112 114 116 118 120 122 124 126 128 </DataArray>
<DataArray  type="UInt8"  Name="types"  format="ascii">3 3 3 3 3 3 3 3 3 3 3 3 3 3 3 3 3 3 3 3 3 3 3 3 3 3 3 3 3 3 3 3 3 3 3 3 3 3 3 3 3 3 3 3 3 3 3 3 3 3 3 3 3 3 3 3 3 3 3 3 3 3 3 3 </DataArray>
</Cells>
<PointData  Scalars="U"> 
<DataArray  type="Float64"  Name="U"  format="ascii">0.0000000000000000e+00  1.0625774975418528e-01  2.0914223437592208e-01  3.0865345421460622e-01  4.0479140960283794e-01  4.9755610085647661e-01  5.8694752827474328e-01  6.7296569214036983e-01  7.5561059271978281e-01  8.3488223026332320e-01  9.1078060500548996e-01  9.8330571716520754e-01  1.0524575669461040e+00  1.1182361545368038e+00  1.1806414801112204e+00  1.2396735438288493e+00  1.2953323458350565e+00  1.3476178862613497e+00  1.3965301652256408e+00  1.4420691828324823e+00  1.4842349391732823e+00  1.5230274343264907e+00  1.5584466683577534e+00  1.5904926413200349e+00  1.6191653532537007e+00  1.6444648041865662e+00  1.6663909941339015e+00  1.6849439230984002e+00  1.7001235910701034e+00  1.7119299980262872e+00  1.7203631439313083e+00  1.7254230287364125e+00  1.7271096523795073e+00  1.7254230147849023e+00  1.7203631158630177e+00  1.7119299555100684e+00  1.7001235336077281e+00  1.6849438500227703e+00  1.6663909046067098e+00  1.6444646971954289e+00  1.6191652276088109e+00  1.5904924956503821e+00  1.5584465011069693e+00  1.5230272437483832e+00  1.4842347233271342e+00  1.4420689395781854e+00  1.3965298922187628e+00  1.3476175809482165e+00  1.2953320054479518e+00  1.2396731653814343e+00  1.1806410603942805e+00  1.1182356901144366e+00  1.0524570541524605e+00  9.8330515210190517e-01  9.1077998353982026e-01  8.3488154802736758e-01  7.5560984511056339e-01  6.7296487432114771e-01  5.8694663517758516e-01  4.9755512718619893e-01  4.0479034984244078e-01  3.0865230263229482e-01  2.0914098503381551e-01  1.0625639651879693e-01  -1.4634454304944700e-06  </DataArray> 
</PointData> 
</Piece>
</UnstructuredGrid>
</VTKFile>