<?xml version="1.0"?>
<VTKFile type="UnstructuredGrid"  version="0.1"  >
<UnstructuredGrid>
<Piece  NumberOfPoints="65" NumberOfCells="64">
<Points>
<DataArray  type="Float64"  NumberOfComponents="3"  format="ascii">0 0 0  0.0625 0 0  0.125 0 0  0.1875 0 0  0.25 0 0  0.3125 0 0  0.375 0 0  0.4375 0 0  0.5 0 0  0.5625 0 0  0.625 0 0  0.6875 0 0  0.75 0 0  0.8125 0 0  0.875 0 0  0.9375 0 0  1 0 0  1.0625 0 0  1.125 0 0  1.1875 0 0  1.25 0 0  1.3125 0 0  1.375 0 0  1.4375 0 0  1.5 0 0  1.5625 0 0  1.625 0 0  1.6875 0 0  1.75 0 0  1.8125 0 0  1.875 0 0  1.9375 0 0  2 0 0  2.0625 0 0  2.125 0 0  2.1875 0 0  2.25 0 0  2.3125 0 0  2.375 0 0  2.4375 0 0  2.5 0 0  2.5625 0 0  2.625 0 0  2.6875 0 0  2.75 0 0  2.8125 0 0  2.875 0 0  2.9375 0 0  3 0 0  3.0625 0 0  3.125 0 0  3.1875 0 0  3.25 0 0  3.3125 0 0  3.375 0 0  3.4375 0 0  3.5 0 0  3.5625 0 0  3.625 0 0  3.6875 0 0  3.75 0 0  3.8125 0 0  3.875 0 0  3.9375 0 0  4 0 0  </DataArray>
</Points>
<Cells>
<DataArray  type="UInt32"  Name="connectivity"  format="ascii">0 1  1 2  2 3  3 4  4 5  5 6  6 7  7 8  8 9  9 10  10 11  11 12  12 13  13 14  14 15  15 16  16 17  17 18  18 19  19 20  20 21  21 22  22 23  23 24  24 25  25 26  26 27  27 28  28 29  29 30  30 31  31 32  32 33  33 34  34 35  35 36  36 37  37 38  38 39  39 40  40 41  41 42  42 43  43 44  44 45  45 46  46 47  47 48  48 49  49 50  50 51  51 52  52 53  53 54  54 55  55 56  56 57  57 58  58 59  59 60  60 61  61 62  62 63  63 64  </DataArray>
<DataArray  type="UInt32"  Name="offsets"  format="ascii">2 4 6 8 10 12 14 16 18 20 22 24 26 28 30 32 34 36 38 40 42 44 46 48 50 52 54 56 58 60 62 64 66 68 70 72 74 76 78 80 82 84 86 88 90 92 94 96 98 100 102 104 106 108 110 112 114 116 118 120 122 124 126 128 </DataArray>
<DataArray  type="UInt8"  Name="types"  format="ascii">3 3 3 3 3 3 3 3 3 3 3 3 3 3 3 3 3 3 3 3 3 3 3 3 3 3 3 3 3 3 3 3 3 3 3 3 3 3 3 3 3 3 3 3 3 3 3 3 3 3 3 3 3 3 3 3 3 3 3 3 3 3 3 3 </DataArray>
</Cells>
<PointData  Scalars="U"> 
<DataArray  type="Float64"  Name="U"  format="ascii">0.0000000000000000e+00  2.2759949130431181e-01  4.4797360141897241e-01  6.6112233048188207e-01  8.6704567860343407e-01  1.0657436458705714e+00  1.2572162323506180e+00  1.4414634380947999e+00  1.6184852631413942e+00  1.7882817075184743e+00  1.9508527712462373e+00  2.1061984543389323e+00  2.2543187568064083e+00  2.3952136786553324e+00  2.5288832198901288e+00  2.6553273805136648e+00  2.7745461605277626e+00  2.8865395599335515e+00  2.9913075787317172e+00  3.0888502169226673e+00  3.1791674745066354e+00  3.2622593514837566e+00  3.3381258478541040e+00  3.4067669636177174e+00  3.4681826987746178e+00  3.5223730533248157e+00  3.5693380272683162e+00  3.6090776206051238e+00  3.6415918333352382e+00  3.6668806654586596e+00  3.6849441169753896e+00  3.6957821878854271e+00  3.6993948781887722e+00  3.6957821878854253e+00  3.6849441169753860e+00  3.6668806654586521e+00  3.6415918333352213e+00  3.6090776206050852e+00  3.5693380272682331e+00  3.5223730533246331e+00  3.4681826987742257e+00  3.4067669636168949e+00  3.3381258478524134e+00  3.2622593514803588e+00  3.1791674744999496e+00  3.0888502169097949e+00  2.9913075787074712e+00  2.8865395598888575e+00  2.7745461604471253e+00  2.6553273803712383e+00  2.5288832196437898e+00  2.3952136782379818e+00  2.2543187561135443e+00  2.1061984532113707e+00  1.9508527694467102e+00  1.7882817047007946e+00  1.6184852588109000e+00  1.4414634315589561e+00  1.2572162226589940e+00  1.0657436317439093e+00  8.6704565835210679e-01  6.6112230191491428e-01  4.4797356174536851e-01  2.2759943702960567e-01  -7.3178922959920672e-08  </DataArray> 
</PointData> 
</Piece>
</UnstructuredGrid>
</VTKFile>