<?xml version="1.0"?>
<VTKFile type="UnstructuredGrid"  version="0.1"  >
<UnstructuredGrid>
<Piece  NumberOfPoints="65" NumberOfCells="64">
<Points>
<DataArray  type="Float64"  NumberOfComponents="3"  format="ascii">0 0 0  0.0625 0 0  0.125 0 0  0.1875 0 0  0.25 0 0  0.3125 0 0  0.375 0 0  0.4375 0 0  0.5 0 0  0.5625 0 0  0.625 0 0  0.6875 0 0  0.75 0 0  0.8125 0 0  0.875 0 0  0.9375 0 0  1 0 0  1.0625 0 0  1.125 0 0  1.1875 0 0  1.25 0 0  1.3125 0 0  1.375 0 0  1.4375 0 0  1.5 0 0  1.5625 0 0  1.625 0 0  1.6875 0 0  1.75 0 0  1.8125 0 0  1.875 0 0  1.9375 0 0  2 0 0  2.0625 0 0  2.125 0 0  2.1875 0 0  2.25 0 0  2.3125 0 0  2.375 0 0  2.4375 0 0  2.5 0 0  2.5625 0 0  2.625 0 0  2.6875 0 0  2.75 0 0  2.8125 0 0  2.875 0 0  2.9375 0 0  3 0 0  3.0625 0 0  3.125 0 0  3.1875 0 0  3.25 0 0  3.3125 0 0  3.375 0 0  3.4375 0 0  3.5 0 0  3.5625 0 0  3.625 0 0  3.6875 0 0  3.75 0 0  3.8125 0 0  3.875 0 0  3.9375 0 0  4 0 0  </DataArray>
</Points>
<Cells>
<DataArray  type="UInt32"  Name="connectivity"  format="ascii">0 1  1 2  2 3  3 4  4 5  5 6  6 7  7 8  8 9  9 10  10 11  11 12  12 13  13 14  14 15  15 16  16 17  17 18  18 19  19 20  20 21  21 22  22 23  23 24  24 25  25 26  26 27  27 28  28 29  29 30  30 31  31 32  32 33  33 34  34 35  35 36  36 37  37 38  38 39  39 40  40 41  41 42  42 43  43 44  44 45  45 46  46 47  47 48  48 49  49 50  50 51  51 52  52 53  53 54  54 55  55 56  56 57  57 58  58 59  59 60  60 61  61 62  62 63  63 64  </DataArray>
<DataArray  type="UInt32"  Name="offsets"  format="ascii">2 4 6 8 10 12 14 16 18 20 22 24 26 28 30 32 34 36 38 40 42 44 46 48 50 52 54 56 58 60 62 64 66 68 70 72 74 76 78 80 82 84 86 88 90 92 94 96 98 100 102 104 106 108 110 112 114 116 118 120 122 124 126 128 </DataArray>
<DataArray  type="UInt8"  Name="types"  format="ascii">3 3 3 3 3 3 3 3 3 3 3 3 3 3 3 3 3 3 3 3 3 3 3 3 3 3 3 3 3 3 3 3 3 3 3 3 3 3 3 3 3 3 3 3 3 3 3 3 3 3 3 3 3 3 3 3 3 3 3 3 3 3 3 3 </DataArray>
</Cells>
<PointData  Scalars="U"> 
<DataArray  type="Float64"  Name="U"  format="ascii">0.0000000000000000e+00  -7.1355662922007207e-02  -1.4431140539691306e-01  -2.1855393058090308e-01  -2.9377229434947849e-01  -3.6965909963157223e-01  -4.4591167707449847e-01  -5.2223324763228685e-01  -5.9833406291513558e-01  -6.7393251942592736e-01  -7.4875624312912514e-01  -8.2254314113457216e-01  -8.9504241761939052e-01  -9.6601555144043305e-01  -1.0352372331927089e+00  -1.1024962597315409e+00  -1.1675963843846853e+00  -1.2303571212236246e+00  -1.2906145018312596e+00  -1.3482217829893348e+00  -1.4030501036092000e+00  -1.4549890890432806e+00  -1.5039474006447486e+00  -1.5498532280958750e+00  -1.5926547216115723e+00  -1.6323203606574785e+00  -1.6688392553187228e+00  -1.7022213759364526e+00  -1.7324977061170963e+00  -1.7597203137390527e+00  -1.7839623341593314e+00  -1.8053178594855643e+00  -1.8239017275536435e+00  -1.8398492041638277e+00  -1.8533155522025309e+00  -1.8644754815343869e+00  -1.8735224740072396e+00  -1.8806679785846083e+00  -1.8861404725140651e+00  -1.8901843855580853e+00  -1.8930588856523891e+00  -1.8950365259050403e+00  -1.8964017545903935e+00  -1.8974492917014416e+00  -1.8984823776718467e+00  -1.8998109020286640e+00  -1.9017494219468178e+00  -1.9046150829006958e+00  -1.9087254557973390e+00  -1.9143963070779102e+00  -1.9219393202368567e+00  -1.9316597889794183e+00  -1.9438543037678344e+00  -1.9588084547481428e+00  -1.9767945749612366e+00  -1.9980695482882844e+00  -2.0228727067337893e+00  -2.0514238413898167e+00  -2.0839213507419854e+00  -2.1205405488711748e+00  -2.1614321545842223e+00  -2.2067209805918142e+00  -2.2565048395719360e+00  -2.3108536813512899e+00  -2.3698089725521503e+00  </DataArray> 
</PointData> 
</Piece>
</UnstructuredGrid>
</VTKFile>