<?xml version="1.0"?>
<VTKFile type="UnstructuredGrid"  version="0.1"  >
<UnstructuredGrid>
<Piece  NumberOfPoints="65" NumberOfCells="64">
<Points>
<DataArray  type="Float64"  NumberOfComponents="3"  format="ascii">0 0 0  0.0625 0 0  0.125 0 0  0.1875 0 0  0.25 0 0  0.3125 0 0  0.375 0 0  0.4375 0 0  0.5 0 0  0.5625 0 0  0.625 0 0  0.6875 0 0  0.75 0 0  0.8125 0 0  0.875 0 0  0.9375 0 0  1 0 0  1.0625 0 0  1.125 0 0  1.1875 0 0  1.25 0 0  1.3125 0 0  1.375 0 0  1.4375 0 0  1.5 0 0  1.5625 0 0  1.625 0 0  1.6875 0 0  1.75 0 0  1.8125 0 0  1.875 0 0  1.9375 0 0  2 0 0  2.0625 0 0  2.125 0 0  2.1875 0 0  2.25 0 0  2.3125 0 0  2.375 0 0  2.4375 0 0  2.5 0 0  2.5625 0 0  2.625 0 0  2.6875 0 0  2.75 0 0  2.8125 0 0  2.875 0 0  2.9375 0 0  3 0 0  3.0625 0 0  3.125 0 0  3.1875 0 0  3.25 0 0  3.3125 0 0  3.375 0 0  3.4375 0 0  3.5 0 0  3.5625 0 0  3.625 0 0  3.6875 0 0  3.75 0 0  3.8125 0 0  3.875 0 0  3.9375 0 0  4 0 0  </DataArray>
</Points>
<Cells>
<DataArray  type="UInt32"  Name="connectivity"  format="ascii">0 1  1 2  2 3  3 4  4 5  5 6  6 7  7 8  8 9  9 10  10 11  11 12  12 13  13 14  14 15  15 16  16 17  17 18  18 19  19 20  20 21  21 22  22 23  23 24  24 25  25 26  26 27  27 28  28 29  29 30  30 31  31 32  32 33  33 34  34 35  35 36  36 37  37 38  38 39  39 40  40 41  41 42  42 43  43 44  44 45  45 46  46 47  47 48  48 49  49 50  50 51  51 52  52 53  53 54  54 55  55 56  56 57  57 58  58 59  59 60  60 61  61 62  62 63  63 64  </DataArray>
<DataArray  type="UInt32"  Name="offsets"  format="ascii">2 4 6 8 10 12 14 16 18 20 22 24 26 28 30 32 34 36 38 40 42 44 46 48 50 52 54 56 58 60 62 64 66 68 70 72 74 76 78 80 82 84 86 88 90 92 94 96 98 100 102 104 106 108 110 112 114 116 118 120 122 124 126 128 </DataArray>
<DataArray  type="UInt8"  Name="types"  format="ascii">3 3 3 3 3 3 3 3 3 3 3 3 3 3 3 3 3 3 3 3 3 3 3 3 3 3 3 3 3 3 3 3 3 3 3 3 3 3 3 3 3 3 3 3 3 3 3 3 3 3 3 3 3 3 3 3 3 3 3 3 3 3 3 3 </DataArray>
</Cells>
<PointData  Scalars="ud"> 
<DataArray  type="Float64"  Name="ud"  format="ascii">0.0000000000000000e+00  1.0835361168118053e-01  2.1326742616613309e-01  3.1474144345485772e-01  4.1277566354735440e-01  5.0737008644362314e-01  5.9852471214366387e-01  6.8623954064747672e-01  7.7051457195506157e-01  8.5134980606641841e-01  9.2874524298154737e-01  1.0027008827004484e+00  1.0732167252231215e+00  1.1402927705495665e+00  1.2039290186797835e+00  1.2641254696137729e+00  1.3208821233515340e+00  1.3741989798930674e+00  1.4240760392383727e+00  1.4705133013874501e+00  1.5135107663402994e+00  1.5530684340969210e+00  1.5891863046573145e+00  1.6218643780214799e+00  1.6511026541894176e+00  1.6769011331611272e+00  1.6992598149366089e+00  1.7181786995158626e+00  1.7336577868988885e+00  1.7456970770856863e+00  1.7542965700762561e+00  1.7594562658705981e+00  1.7611761644687121e+00  1.7594562658705981e+00  1.7542965700762561e+00  1.7456970770856863e+00  1.7336577868988885e+00  1.7181786995158626e+00  1.6992598149366089e+00  1.6769011331611272e+00  1.6511026541894176e+00  1.6218643780214799e+00  1.5891863046573145e+00  1.5530684340969210e+00  1.5135107663402994e+00  1.4705133013874501e+00  1.4240760392383727e+00  1.3741989798930674e+00  1.3208821233515340e+00  1.2641254696137729e+00  1.2039290186797835e+00  1.1402927705495665e+00  1.0732167252231215e+00  1.0027008827004484e+00  9.2874524298154737e-01  8.5134980606641841e-01  7.7051457195506157e-01  6.8623954064747672e-01  5.9852471214366387e-01  5.0737008644362314e-01  4.1277566354735440e-01  3.1474144345485772e-01  2.1326742616613309e-01  1.0835361168118053e-01  0.0000000000000000e+00  </DataArray> 
</PointData> 
</Piece>
</UnstructuredGrid>
</VTKFile>