<?xml version="1.0"?>
<VTKFile type="UnstructuredGrid"  version="0.1"  >
<UnstructuredGrid>
<Piece  NumberOfPoints="65" NumberOfCells="64">
<Points>
<DataArray  type="Float64"  NumberOfComponents="3"  format="ascii">0 0 0  0.0625 0 0  0.125 0 0  0.1875 0 0  0.25 0 0  0.3125 0 0  0.375 0 0  0.4375 0 0  0.5 0 0  0.5625 0 0  0.625 0 0  0.6875 0 0  0.75 0 0  0.8125 0 0  0.875 0 0  0.9375 0 0  1 0 0  1.0625 0 0  1.125 0 0  1.1875 0 0  1.25 0 0  1.3125 0 0  1.375 0 0  1.4375 0 0  1.5 0 0  1.5625 0 0  1.625 0 0  1.6875 0 0  1.75 0 0  1.8125 0 0  1.875 0 0  1.9375 0 0  2 0 0  2.0625 0 0  2.125 0 0  2.1875 0 0  2.25 0 0  2.3125 0 0  2.375 0 0  2.4375 0 0  2.5 0 0  2.5625 0 0  2.625 0 0  2.6875 0 0  2.75 0 0  2.8125 0 0  2.875 0 0  2.9375 0 0  3 0 0  3.0625 0 0  3.125 0 0  3.1875 0 0  3.25 0 0  3.3125 0 0  3.375 0 0  3.4375 0 0  3.5 0 0  3.5625 0 0  3.625 0 0  3.6875 0 0  3.75 0 0  3.8125 0 0  3.875 0 0  3.9375 0 0  4 0 0  </DataArray>
</Points>
<Cells>
<DataArray  type="UInt32"  Name="connectivity"  format="ascii">0 1  1 2  2 3  3 4  4 5  5 6  6 7  7 8  8 9  9 10  10 11  11 12  12 13  13 14  14 15  15 16  16 17  17 18  18 19  19 20  20 21  21 22  22 23  23 24  24 25  25 26  26 27  27 28  28 29  29 30  30 31  31 32  32 33  33 34  34 35  35 36  36 37  37 38  38 39  39 40  40 41  41 42  42 43  43 44  44 45  45 46  46 47  47 48  48 49  49 50  50 51  51 52  52 53  53 54  54 55  55 56  56 57  57 58  58 59  59 60  60 61  61 62  62 63  63 64  </DataArray>
<DataArray  type="UInt32"  Name="offsets"  format="ascii">2 4 6 8 10 12 14 16 18 20 22 24 26 28 30 32 34 36 38 40 42 44 46 48 50 52 54 56 58 60 62 64 66 68 70 72 74 76 78 80 82 84 86 88 90 92 94 96 98 100 102 104 106 108 110 112 114 116 118 120 122 124 126 128 </DataArray>
<DataArray  type="UInt8"  Name="types"  format="ascii">3 3 3 3 3 3 3 3 3 3 3 3 3 3 3 3 3 3 3 3 3 3 3 3 3 3 3 3 3 3 3 3 3 3 3 3 3 3 3 3 3 3 3 3 3 3 3 3 3 3 3 3 3 3 3 3 3 3 3 3 3 3 3 3 </DataArray>
</Cells>
<PointData  Scalars="U"> 
<DataArray  type="Float64"  Name="U"  format="ascii">0.0000000000000000e+00  -7.3540781783057299e-02  -1.4847540946111168e-01  -2.2450925271694530e-01  -3.0134990279911350e-01  -3.7870829973081072e-01  -4.5629984806209606e-01  -5.3384551736393515e-01  -6.1107292378593248e-01  -6.8771738914369118e-01  -7.6352297415971404e-01  -8.3824348264613124e-01  -9.1164343358033118e-01  -9.8349899817762909e-01  -1.0535988992004837e+00  -1.1217452698539812e+00  -1.1877544696957836e+00  -1.2514578550300242e+00  -1.3127025012547977e+00  -1.3713518745896884e+00  -1.4272864505229421e+00  -1.4804042761892047e+00  -1.5306214737223005e+00  -1.5778726814295068e+00  -1.6221114294126626e+00  -1.6633104460277783e+00  -1.7014618913409059e+00  -1.7365775135179649e+00  -1.7686887238952218e+00  -1.7978465863313220e+00  -1.8241217163577734e+00  -1.8476040856389515e+00  -1.8684027273409656e+00  -1.8866453382056365e+00  -1.9024777734444025e+00  -1.9160634310177680e+00  -1.9275825224568357e+00  -1.9372312281191360e+00  -1.9452207356523723e+00  -1.9517761614639475e+00  -1.9571353561540465e+00  -1.9615475961543638e+00  -1.9652721652076599e+00  -1.9685768308054983e+00  -1.9717362222492461e+00  -1.9750301185857571e+00  -1.9787416562641278e+00  -1.9831554679313428e+00  -1.9885557652986514e+00  -1.9952243804325298e+00  -2.0034387811195136e+00  -2.0134700770894929e+00  -2.0255810348254584e+00  -2.0400241194103357e+00  -2.0570395823380832e+00  -2.0768536144257999e+00  -2.0996765828904422e+00  -2.1257013712877848e+00  -2.1551018403485491e+00  -2.1880314267895593e+00  -2.2246218959353934e+00  -2.2649822624736236e+00  -2.3091978919060194e+00  -2.3573297932764126e+00  -2.4094141115859755e+00  </DataArray> 
</PointData> 
</Piece>
</UnstructuredGrid>
</VTKFile>