<?xml version="1.0"?>
<VTKFile type="UnstructuredGrid"  version="0.1"  >
<UnstructuredGrid>
<Piece  NumberOfPoints="65" NumberOfCells="64">
<Points>
<DataArray  type="Float64"  NumberOfComponents="3"  format="ascii">0 0 0  0.0625 0 0  0.125 0 0  0.1875 0 0  0.25 0 0  0.3125 0 0  0.375 0 0  0.4375 0 0  0.5 0 0  0.5625 0 0  0.625 0 0  0.6875 0 0  0.75 0 0  0.8125 0 0  0.875 0 0  0.9375 0 0  1 0 0  1.0625 0 0  1.125 0 0  1.1875 0 0  1.25 0 0  1.3125 0 0  1.375 0 0  1.4375 0 0  1.5 0 0  1.5625 0 0  1.625 0 0  1.6875 0 0  1.75 0 0  1.8125 0 0  1.875 0 0  1.9375 0 0  2 0 0  2.0625 0 0  2.125 0 0  2.1875 0 0  2.25 0 0  2.3125 0 0  2.375 0 0  2.4375 0 0  2.5 0 0  2.5625 0 0  2.625 0 0  2.6875 0 0  2.75 0 0  2.8125 0 0  2.875 0 0  2.9375 0 0  3 0 0  3.0625 0 0  3.125 0 0  3.1875 0 0  3.25 0 0  3.3125 0 0  3.375 0 0  3.4375 0 0  3.5 0 0  3.5625 0 0  3.625 0 0  3.6875 0 0  3.75 0 0  3.8125 0 0  3.875 0 0  3.9375 0 0  4 0 0  </DataArray>
</Points>
<Cells>
<DataArray  type="UInt32"  Name="connectivity"  format="ascii">0 1  1 2  2 3  3 4  4 5  5 6  6 7  7 8  8 9  9 10  10 11  11 12  12 13  13 14  14 15  15 16  16 17  17 18  18 19  19 20  20 21  21 22  22 23  23 24  24 25  25 26  26 27  27 28  28 29  29 30  30 31  31 32  32 33  33 34  34 35  35 36  36 37  37 38  38 39  39 40  40 41  41 42  42 43  43 44  44 45  45 46  46 47  47 48  48 49  49 50  50 51  51 52  52 53  53 54  54 55  55 56  56 57  57 58  58 59  59 60  60 61  61 62  62 63  63 64  </DataArray>
<DataArray  type="UInt32"  Name="offsets"  format="ascii">2 4 6 8 10 12 14 16 18 20 22 24 26 28 30 32 34 36 38 40 42 44 46 48 50 52 54 56 58 60 62 64 66 68 70 72 74 76 78 80 82 84 86 88 90 92 94 96 98 100 102 104 106 108 110 112 114 116 118 120 122 124 126 128 </DataArray>
<DataArray  type="UInt8"  Name="types"  format="ascii">3 3 3 3 3 3 3 3 3 3 3 3 3 3 3 3 3 3 3 3 3 3 3 3 3 3 3 3 3 3 3 3 3 3 3 3 3 3 3 3 3 3 3 3 3 3 3 3 3 3 3 3 3 3 3 3 3 3 3 3 3 3 3 3 </DataArray>
</Cells>
<PointData  Scalars="ud"> 
<DataArray  type="Float64"  Name="ud"  format="ascii">0.0000000000000000e+00  2.1380995525218405e-01  4.2083229287731466e-01  6.2106701287539179e-01  8.1451411524641548e-01  1.0011735999903857e+00  1.1810454671073025e+00  1.3541297165971657e+00  1.5204263484599756e+00  1.6799353626957318e+00  1.8326567593044347e+00  1.9785905382860842e+00  2.1177366996406803e+00  2.2500952433682229e+00  2.3756661694687118e+00  2.4944494779421476e+00  2.6064451687885297e+00  2.7116532420078583e+00  2.8100736976001333e+00  2.9017065355653551e+00  2.9865517559035233e+00  3.0646093586146383e+00  3.1358793436986994e+00  3.2003617111557072e+00  3.2580564609856619e+00  3.3089635931885630e+00  3.3530831077644105e+00  3.3904150047132044e+00  3.4209592840349448e+00  3.4447159457296319e+00  3.4616849897972659e+00  3.4718664162378459e+00  3.4752602250513727e+00  3.4718664162378459e+00  3.4616849897972659e+00  3.4447159457296319e+00  3.4209592840349448e+00  3.3904150047132044e+00  3.3530831077644105e+00  3.3089635931885630e+00  3.2580564609856619e+00  3.2003617111557072e+00  3.1358793436986994e+00  3.0646093586146383e+00  2.9865517559035233e+00  2.9017065355653551e+00  2.8100736976001333e+00  2.7116532420078583e+00  2.6064451687885297e+00  2.4944494779421476e+00  2.3756661694687118e+00  2.2500952433682229e+00  2.1177366996406803e+00  1.9785905382860842e+00  1.8326567593044347e+00  1.6799353626957318e+00  1.5204263484599756e+00  1.3541297165971657e+00  1.1810454671073025e+00  1.0011735999903857e+00  8.1451411524641548e-01  6.2106701287539179e-01  4.2083229287731466e-01  2.1380995525218405e-01  0.0000000000000000e+00  </DataArray> 
</PointData> 
</Piece>
</UnstructuredGrid>
</VTKFile>