<?xml version="1.0"?>
<VTKFile type="UnstructuredGrid"  version="0.1"  >
<UnstructuredGrid>
<Piece  NumberOfPoints="65" NumberOfCells="64">
<Points>
<DataArray  type="Float64"  NumberOfComponents="3"  format="ascii">0 0 0  0.0625 0 0  0.125 0 0  0.1875 0 0  0.25 0 0  0.3125 0 0  0.375 0 0  0.4375 0 0  0.5 0 0  0.5625 0 0  0.625 0 0  0.6875 0 0  0.75 0 0  0.8125 0 0  0.875 0 0  0.9375 0 0  1 0 0  1.0625 0 0  1.125 0 0  1.1875 0 0  1.25 0 0  1.3125 0 0  1.375 0 0  1.4375 0 0  1.5 0 0  1.5625 0 0  1.625 0 0  1.6875 0 0  1.75 0 0  1.8125 0 0  1.875 0 0  1.9375 0 0  2 0 0  2.0625 0 0  2.125 0 0  2.1875 0 0  2.25 0 0  2.3125 0 0  2.375 0 0  2.4375 0 0  2.5 0 0  2.5625 0 0  2.625 0 0  2.6875 0 0  2.75 0 0  2.8125 0 0  2.875 0 0  2.9375 0 0  3 0 0  3.0625 0 0  3.125 0 0  3.1875 0 0  3.25 0 0  3.3125 0 0  3.375 0 0  3.4375 0 0  3.5 0 0  3.5625 0 0  3.625 0 0  3.6875 0 0  3.75 0 0  3.8125 0 0  3.875 0 0  3.9375 0 0  4 0 0  </DataArray>
</Points>
<Cells>
<DataArray  type="UInt32"  Name="connectivity"  format="ascii">0 1  1 2  2 3  3 4  4 5  5 6  6 7  7 8  8 9  9 10  10 11  11 12  12 13  13 14  14 15  15 16  16 17  17 18  18 19  19 20  20 21  21 22  22 23  23 24  24 25  25 26  26 27  27 28  28 29  29 30  30 31  31 32  32 33  33 34  34 35  35 36  36 37  37 38  38 39  39 40  40 41  41 42  42 43  43 44  44 45  45 46  46 47  47 48  48 49  49 50  50 51  51 52  52 53  53 54  54 55  55 56  56 57  57 58  58 59  59 60  60 61  61 62  62 63  63 64  </DataArray>
<DataArray  type="UInt32"  Name="offsets"  format="ascii">2 4 6 8 10 12 14 16 18 20 22 24 26 28 30 32 34 36 38 40 42 44 46 48 50 52 54 56 58 60 62 64 66 68 70 72 74 76 78 80 82 84 86 88 90 92 94 96 98 100 102 104 106 108 110 112 114 116 118 120 122 124 126 128 </DataArray>
<DataArray  type="UInt8"  Name="types"  format="ascii">3 3 3 3 3 3 3 3 3 3 3 3 3 3 3 3 3 3 3 3 3 3 3 3 3 3 3 3 3 3 3 3 3 3 3 3 3 3 3 3 3 3 3 3 3 3 3 3 3 3 3 3 3 3 3 3 3 3 3 3 3 3 3 3 </DataArray>
</Cells>
<PointData  Scalars="U"> 
<DataArray  type="Float64"  Name="U"  format="ascii">0.0000000000000000e+00  -7.3298888251780478e-02  -1.4801594708078628e-01  -2.2385427133623850e-01  -3.0051919263870769e-01  -3.7771941442784435e-01  -4.5516813535332945e-01  -5.3258415715310281e-01  -6.0969297329806360e-01  -6.8622783484032834e-01  -7.6193079007551123e-01  -8.3655369481026365e-01  -9.0985919020583206e-01  -9.8162164533785534e-01  -1.0516280617633398e+00  -1.1196789375096163e+00  -1.1855890879897950e+00  -1.2491884213987900e+00  -1.3103226661489060e+00  -1.3688540478615414e+00  -1.4246619133412175e+00  -1.4776432988214752e+00  -1.5277134395931260e+00  -1.5748062179103193e+00  -1.6188745458274558e+00  -1.6598906793611672e+00  -1.6978464601092300e+00  -1.7327534802071296e+00  -1.7646431662791020e+00  -1.7935667778609279e+00  -1.8195953156540980e+00  -1.8428193349327753e+00  -1.8633486594831687e+00  -1.8813119916253151e+00  -1.8968564141638473e+00  -1.9101467805487757e+00  -1.9213649901084646e+00  -1.9307091459502352e+00  -1.9383925940110340e+00  -1.9446428427788676e+00  -1.9497003643883570e+00  -1.9538172791094037e+00  -1.9572559266808092e+00  -1.9602873294704231e+00  -1.9631895540457911e+00  -1.9662459793862543e+00  -1.9697434816278618e+00  -1.9739705468726252e+00  -1.9792153251780555e+00  -1.9857636403352643e+00  -1.9938969714077417e+00  -2.0038904232028361e+00  -2.0160107038503936e+00  -2.0305141284372956e+00  -2.0476446681658533e+00  -2.0676320647459216e+00  -2.0906900296781457e+00  -2.1170145477281213e+00  -2.1467823032237665e+00  -2.1801492468331793e+00  -2.2172493192066995e+00  -2.2581933463107688e+00  -2.3030681194648506e+00  -2.3519356710448167e+00  -2.4048327545708328e+00  </DataArray> 
</PointData> 
</Piece>
</UnstructuredGrid>
</VTKFile>