<?xml version="1.0"?>
<VTKFile type="UnstructuredGrid"  version="0.1"  >
<UnstructuredGrid>
<Piece  NumberOfPoints="65" NumberOfCells="64">
<Points>
<DataArray  type="Float64"  NumberOfComponents="3"  format="ascii">0 0 0  0.0625 0 0  0.125 0 0  0.1875 0 0  0.25 0 0  0.3125 0 0  0.375 0 0  0.4375 0 0  0.5 0 0  0.5625 0 0  0.625 0 0  0.6875 0 0  0.75 0 0  0.8125 0 0  0.875 0 0  0.9375 0 0  1 0 0  1.0625 0 0  1.125 0 0  1.1875 0 0  1.25 0 0  1.3125 0 0  1.375 0 0  1.4375 0 0  1.5 0 0  1.5625 0 0  1.625 0 0  1.6875 0 0  1.75 0 0  1.8125 0 0  1.875 0 0  1.9375 0 0  2 0 0  2.0625 0 0  2.125 0 0  2.1875 0 0  2.25 0 0  2.3125 0 0  2.375 0 0  2.4375 0 0  2.5 0 0  2.5625 0 0  2.625 0 0  2.6875 0 0  2.75 0 0  2.8125 0 0  2.875 0 0  2.9375 0 0  3 0 0  3.0625 0 0  3.125 0 0  3.1875 0 0  3.25 0 0  3.3125 0 0  3.375 0 0  3.4375 0 0  3.5 0 0  3.5625 0 0  3.625 0 0  3.6875 0 0  3.75 0 0  3.8125 0 0  3.875 0 0  3.9375 0 0  4 0 0  </DataArray>
</Points>
<Cells>
<DataArray  type="UInt32"  Name="connectivity"  format="ascii">0 1  1 2  2 3  3 4  4 5  5 6  6 7  7 8  8 9  9 10  10 11  11 12  12 13  13 14  14 15  15 16  16 17  17 18  18 19  19 20  20 21  21 22  22 23  23 24  24 25  25 26  26 27  27 28  28 29  29 30  30 31  31 32  32 33  33 34  34 35  35 36  36 37  37 38  38 39  39 40  40 41  41 42  42 43  43 44  44 45  45 46  46 47  47 48  48 49  49 50  50 51  51 52  52 53  53 54  54 55  55 56  56 57  57 58  58 59  59 60  60 61  61 62  62 63  63 64  </DataArray>
<DataArray  type="UInt32"  Name="offsets"  format="ascii">2 4 6 8 10 12 14 16 18 20 22 24 26 28 30 32 34 36 38 40 42 44 46 48 50 52 54 56 58 60 62 64 66 68 70 72 74 76 78 80 82 84 86 88 90 92 94 96 98 100 102 104 106 108 110 112 114 116 118 120 122 124 126 128 </DataArray>
<DataArray  type="UInt8"  Name="types"  format="ascii">3 3 3 3 3 3 3 3 3 3 3 3 3 3 3 3 3 3 3 3 3 3 3 3 3 3 3 3 3 3 3 3 3 3 3 3 3 3 3 3 3 3 3 3 3 3 3 3 3 3 3 3 3 3 3 3 3 3 3 3 3 3 3 3 </DataArray>
</Cells>
<PointData  Scalars="U"> 
<DataArray  type="Float64"  Name="U"  format="ascii">0.0000000000000000e+00  -3.6366301966922039e-02  -7.6572230693963406e-02  -1.2011244000236646e-01  -1.6648827951956699e-01  -2.1521103806400432e-01  -2.6580498789242984e-01  -3.1781017398028627e-01  -3.7078490119849461e-01  -4.2430788235102657e-01  -4.7798002110742782e-01  -5.3142581544006251e-01  -5.8429437879758173e-01  -6.3626008748264151e-01  -6.8702287317208299e-01  -7.3630818890778915e-01  -7.8386668496114698e-01  -8.2947363758232195e-01  -8.7292817871909967e-01  -9.1405237833657271e-01  -9.5269023306019673e-01  -9.8870661562066986e-01  -1.0219862391495114e+00  -1.0524326889192557e+00  -1.0799675717932762e+00  -1.1045298305727773e+00  -1.1260752666877230e+00  -1.1445763103094702e+00  -1.1600220719459222e+00  -1.1724187038412874e+00  -1.1817900929213625e+00  -1.1881788994472746e+00  -1.1916479467967240e+00  -1.1922819577224812e+00  -1.1901896209214344e+00  -1.1855059587305377e+00  -1.1783949522948436e+00  -1.1690523648025457e+00  -1.1577086866809640e+00  -1.1446321094943677e+00  -1.1301314183544702e+00  -1.1145586767920421e+00  -1.0983115642350141e+00  -1.0818352155944404e+00  -1.0656234061265559e+00  -1.0502189238495498e+00  -1.0362129773774627e+00  -1.0242434999263015e+00  -1.0149922309975845e+00  -1.0091804860264486e+00  -1.0075635608228861e+00  -1.0109237611662873e+00  -1.0200620971486873e+00  -1.0357887350128234e+00  -1.0589123540628558e+00  -1.0902286101527974e+00  -1.1305079574758754e+00  -1.1804831240262825e+00  -1.2408365704483928e+00  -1.3121882846090283e+00  -1.3950842732059419e+00  -1.4899861057989114e+00  -1.5972618453381477e+00  -1.7171786629416086e+00  -1.8498973845810089e+00  </DataArray> 
</PointData> 
</Piece>
</UnstructuredGrid>
</VTKFile>