<?xml version="1.0"?>
<VTKFile type="UnstructuredGrid"  version="0.1"  >
<UnstructuredGrid>
<Piece  NumberOfPoints="65" NumberOfCells="64">
<Points>
<DataArray  type="Float64"  NumberOfComponents="3"  format="ascii">0 0 0  0.0625 0 0  0.125 0 0  0.1875 0 0  0.25 0 0  0.3125 0 0  0.375 0 0  0.4375 0 0  0.5 0 0  0.5625 0 0  0.625 0 0  0.6875 0 0  0.75 0 0  0.8125 0 0  0.875 0 0  0.9375 0 0  1 0 0  1.0625 0 0  1.125 0 0  1.1875 0 0  1.25 0 0  1.3125 0 0  1.375 0 0  1.4375 0 0  1.5 0 0  1.5625 0 0  1.625 0 0  1.6875 0 0  1.75 0 0  1.8125 0 0  1.875 0 0  1.9375 0 0  2 0 0  2.0625 0 0  2.125 0 0  2.1875 0 0  2.25 0 0  2.3125 0 0  2.375 0 0  2.4375 0 0  2.5 0 0  2.5625 0 0  2.625 0 0  2.6875 0 0  2.75 0 0  2.8125 0 0  2.875 0 0  2.9375 0 0  3 0 0  3.0625 0 0  3.125 0 0  3.1875 0 0  3.25 0 0  3.3125 0 0  3.375 0 0  3.4375 0 0  3.5 0 0  3.5625 0 0  3.625 0 0  3.6875 0 0  3.75 0 0  3.8125 0 0  3.875 0 0  3.9375 0 0  4 0 0  </DataArray>
</Points>
<Cells>
<DataArray  type="UInt32"  Name="connectivity"  format="ascii">0 1  1 2  2 3  3 4  4 5  5 6  6 7  7 8  8 9  9 10  10 11  11 12  12 13  13 14  14 15  15 16  16 17  17 18  18 19  19 20  20 21  21 22  22 23  23 24  24 25  25 26  26 27  27 28  28 29  29 30  30 31  31 32  32 33  33 34  34 35  35 36  36 37  37 38  38 39  39 40  40 41  41 42  42 43  43 44  44 45  45 46  46 47  47 48  48 49  49 50  50 51  51 52  52 53  53 54  54 55  55 56  56 57  57 58  58 59  59 60  60 61  61 62  62 63  63 64  </DataArray>
<DataArray  type="UInt32"  Name="offsets"  format="ascii">2 4 6 8 10 12 14 16 18 20 22 24 26 28 30 32 34 36 38 40 42 44 46 48 50 52 54 56 58 60 62 64 66 68 70 72 74 76 78 80 82 84 86 88 90 92 94 96 98 100 102 104 106 108 110 112 114 116 118 120 122 124 126 128 </DataArray>
<DataArray  type="UInt8"  Name="types"  format="ascii">3 3 3 3 3 3 3 3 3 3 3 3 3 3 3 3 3 3 3 3 3 3 3 3 3 3 3 3 3 3 3 3 3 3 3 3 3 3 3 3 3 3 3 3 3 3 3 3 3 3 3 3 3 3 3 3 3 3 3 3 3 3 3 3 </DataArray>
</Cells>
<PointData  Scalars="U"> 
<DataArray  type="Float64"  Name="U"  format="ascii">0.0000000000000000e+00  -7.3048422670067753e-02  -1.4753974341195952e-01  -2.2317476619609639e-01  -2.9965654725143570e-01  -3.7669153808310341e-01  -4.5399071661429763e-01  -5.3127070253690145e-01  -6.0825485310299721e-01  -6.8467433576225156e-01  -7.6026917424014573e-01  -8.3478926485050531e-01  -9.0799536003344250e-01  -9.7966001629709032e-01  -1.0495685039089986e+00  -1.1175196758218977e+00  -1.1833267934207443e+00  -1.2468183067368848e+00  -1.3078385867857254e+00  -1.3662486076433444e+00  -1.4219265757840400e+00  -1.4747685040562721e+00  -1.5246887274827030e+00  -1.5716203578374559e+00  -1.6155156736892531e+00  -1.6563464423140073e+00  -1.6941041695882755e+00  -1.7288002736910812e+00  -1.7604661781829554e+00  -1.7891533198156409e+00  -1.8149330662724066e+00  -1.8378965389660362e+00  -1.8581543360473847e+00  -1.8758361509189767e+00  -1.8910902818206039e+00  -1.9040830284700585e+00  -1.9149979723118624e+00  -1.9240351376563667e+00  -1.9314100318832876e+00  -1.9373525639355729e+00  -1.9421058415348598e+00  -1.9459248488973437e+00  -1.9490750082025043e+00  -1.9518306296460393e+00  -1.9544732565675080e+00  -1.9572899138533628e+00  -1.9605712695448938e+00  -1.9646097212927913e+00  -1.9696974209584512e+00  -1.9761242522285214e+00  -1.9841757775452151e+00  -1.9941311719232067e+00  -2.0062611622889133e+00  -2.0208259918072100e+00  -2.0380734292254181e+00  -2.0582368435410152e+00  -2.0815333642696583e+00  -2.1081621472419356e+00  -2.1383027651855402e+00  -2.1721137413562928e+00  -2.2097312431757601e+00  -2.2512679512316369e+00  -2.2968121171227067e+00  -2.3464268215131590e+00  -2.4001494414366964e+00  </DataArray> 
</PointData> 
</Piece>
</UnstructuredGrid>
</VTKFile>