<?xml version="1.0"?>
<VTKFile type="UnstructuredGrid"  version="0.1"  >
<UnstructuredGrid>
<Piece  NumberOfPoints="65" NumberOfCells="64">
<Points>
<DataArray  type="Float64"  NumberOfComponents="3"  format="ascii">0 0 0  0.0625 0 0  0.125 0 0  0.1875 0 0  0.25 0 0  0.3125 0 0  0.375 0 0  0.4375 0 0  0.5 0 0  0.5625 0 0  0.625 0 0  0.6875 0 0  0.75 0 0  0.8125 0 0  0.875 0 0  0.9375 0 0  1 0 0  1.0625 0 0  1.125 0 0  1.1875 0 0  1.25 0 0  1.3125 0 0  1.375 0 0  1.4375 0 0  1.5 0 0  1.5625 0 0  1.625 0 0  1.6875 0 0  1.75 0 0  1.8125 0 0  1.875 0 0  1.9375 0 0  2 0 0  2.0625 0 0  2.125 0 0  2.1875 0 0  2.25 0 0  2.3125 0 0  2.375 0 0  2.4375 0 0  2.5 0 0  2.5625 0 0  2.625 0 0  2.6875 0 0  2.75 0 0  2.8125 0 0  2.875 0 0  2.9375 0 0  3 0 0  3.0625 0 0  3.125 0 0  3.1875 0 0  3.25 0 0  3.3125 0 0  3.375 0 0  3.4375 0 0  3.5 0 0  3.5625 0 0  3.625 0 0  3.6875 0 0  3.75 0 0  3.8125 0 0  3.875 0 0  3.9375 0 0  4 0 0  </DataArray>
</Points>
<Cells>
<DataArray  type="UInt32"  Name="connectivity"  format="ascii">0 1  1 2  2 3  3 4  4 5  5 6  6 7  7 8  8 9  9 10  10 11  11 12  12 13  13 14  14 15  15 16  16 17  17 18  18 19  19 20  20 21  21 22  22 23  23 24  24 25  25 26  26 27  27 28  28 29  29 30  30 31  31 32  32 33  33 34  34 35  35 36  36 37  37 38  38 39  39 40  40 41  41 42  42 43  43 44  44 45  45 46  46 47  47 48  48 49  49 50  50 51  51 52  52 53  53 54  54 55  55 56  56 57  57 58  58 59  59 60  60 61  61 62  62 63  63 64  </DataArray>
<DataArray  type="UInt32"  Name="offsets"  format="ascii">2 4 6 8 10 12 14 16 18 20 22 24 26 28 30 32 34 36 38 40 42 44 46 48 50 52 54 56 58 60 62 64 66 68 70 72 74 76 78 80 82 84 86 88 90 92 94 96 98 100 102 104 106 108 110 112 114 116 118 120 122 124 126 128 </DataArray>
<DataArray  type="UInt8"  Name="types"  format="ascii">3 3 3 3 3 3 3 3 3 3 3 3 3 3 3 3 3 3 3 3 3 3 3 3 3 3 3 3 3 3 3 3 3 3 3 3 3 3 3 3 3 3 3 3 3 3 3 3 3 3 3 3 3 3 3 3 3 3 3 3 3 3 3 3 </DataArray>
</Cells>
<PointData  Scalars="U"> 
<DataArray  type="Float64"  Name="U"  format="ascii">0.0000000000000000e+00  1.1444411216182047e-01  2.2525507477971374e-01  3.3243288820207517e-01  4.3597755275942635e-01  5.3588906876458053e-01  6.3216743651285956e-01  7.2481265628235791e-01  8.1382472833424502e-01  8.9920365291310056e-01  9.8094943024727721e-01  1.0590620605492826e+00  1.1335415440161734e+00  1.2043878808299553e+00  1.2716010711579908e+00  1.3351811151533910e+00  1.3951280129554049e+00  1.4514417646897881e+00  1.5041223704691478e+00  1.5531698303932662e+00  1.5985841445493874e+00  1.6403653130124696e+00  1.6785133358453996e+00  1.7130282130991623e+00  1.7439099448129658e+00  1.7711585310143170e+00  1.7947739717190487e+00  1.8147562669312944e+00  1.8311054166434126e+00  1.8438214208358568e+00  1.8529042794769968e+00  1.8583539925228885e+00  1.8601705599169978e+00  1.8583539815898735e+00  1.8529042574587853e+00  1.8438213874273190e+00  1.8311053713849377e+00  1.8147562092065170e+00  1.7947739007518584e+00  1.7711584458651866e+00  1.7439098443746377e+00  1.7130280960917474e+00  1.6785132008109513e+00  1.6403651583090983e+00  1.5985839683449929e+00  1.5531696306589768e+00  1.5041221449725510e+00  1.4514415109880621e+00  1.3951277283884524e+00  1.3351807968370895e+00  1.2716007159776834e+00  1.2043874854343033e+00  1.1335411048115018e+00  1.0590615736945561e+00  9.8094889164983823e-01  8.9920305822531410e-01  8.1382407295119008e-01  7.2481193534070243e-01  6.3216664489105923e-01  5.3588820108454149e-01  4.3597660338976002e-01  3.3243185126307384e-01  2.2525394415016770e-01  1.1444288148778817e-01  -1.3372943664521580e-06  </DataArray> 
</PointData> 
</Piece>
</UnstructuredGrid>
</VTKFile>