<?xml version="1.0"?>
<VTKFile type="UnstructuredGrid"  version="0.1"  >
<UnstructuredGrid>
<Piece  NumberOfPoints="65" NumberOfCells="64">
<Points>
<DataArray  type="Float64"  NumberOfComponents="3"  format="ascii">0 0 0  0.0625 0 0  0.125 0 0  0.1875 0 0  0.25 0 0  0.3125 0 0  0.375 0 0  0.4375 0 0  0.5 0 0  0.5625 0 0  0.625 0 0  0.6875 0 0  0.75 0 0  0.8125 0 0  0.875 0 0  0.9375 0 0  1 0 0  1.0625 0 0  1.125 0 0  1.1875 0 0  1.25 0 0  1.3125 0 0  1.375 0 0  1.4375 0 0  1.5 0 0  1.5625 0 0  1.625 0 0  1.6875 0 0  1.75 0 0  1.8125 0 0  1.875 0 0  1.9375 0 0  2 0 0  2.0625 0 0  2.125 0 0  2.1875 0 0  2.25 0 0  2.3125 0 0  2.375 0 0  2.4375 0 0  2.5 0 0  2.5625 0 0  2.625 0 0  2.6875 0 0  2.75 0 0  2.8125 0 0  2.875 0 0  2.9375 0 0  3 0 0  3.0625 0 0  3.125 0 0  3.1875 0 0  3.25 0 0  3.3125 0 0  3.375 0 0  3.4375 0 0  3.5 0 0  3.5625 0 0  3.625 0 0  3.6875 0 0  3.75 0 0  3.8125 0 0  3.875 0 0  3.9375 0 0  4 0 0  </DataArray>
</Points>
<Cells>
<DataArray  type="UInt32"  Name="connectivity"  format="ascii">0 1  1 2  2 3  3 4  4 5  5 6  6 7  7 8  8 9  9 10  10 11  11 12  12 13  13 14  14 15  15 16  16 17  17 18  18 19  19 20  20 21  21 22  22 23  23 24  24 25  25 26  26 27  27 28  28 29  29 30  30 31  31 32  32 33  33 34  34 35  35 36  36 37  37 38  38 39  39 40  40 41  41 42  42 43  43 44  44 45  45 46  46 47  47 48  48 49  49 50  50 51  51 52  52 53  53 54  54 55  55 56  56 57  57 58  58 59  59 60  60 61  61 62  62 63  63 64  </DataArray>
<DataArray  type="UInt32"  Name="offsets"  format="ascii">2 4 6 8 10 12 14 16 18 20 22 24 26 28 30 32 34 36 38 40 42 44 46 48 50 52 54 56 58 60 62 64 66 68 70 72 74 76 78 80 82 84 86 88 90 92 94 96 98 100 102 104 106 108 110 112 114 116 118 120 122 124 126 128 </DataArray>
<DataArray  type="UInt8"  Name="types"  format="ascii">3 3 3 3 3 3 3 3 3 3 3 3 3 3 3 3 3 3 3 3 3 3 3 3 3 3 3 3 3 3 3 3 3 3 3 3 3 3 3 3 3 3 3 3 3 3 3 3 3 3 3 3 3 3 3 3 3 3 3 3 3 3 3 3 </DataArray>
</Cells>
<PointData  Scalars="U"> 
<DataArray  type="Float64"  Name="U"  format="ascii">0.0000000000000000e+00  -7.7398593974114013e-02  -1.5566564274950806e-01  -2.3456247305505071e-01  -3.1385227117994041e-01  -3.9330102174951009e-01  -4.7267843679887717e-01  -5.5175887183032246e-01  -6.3032222554844719e-01  -7.0815481997747787e-01  -7.8505025767737047e-01  -8.6081025278948242e-01  -9.3524543265847904e-01  -1.0081761067949162e+00  -1.0794329999628742e+00  -1.1488579461996067e+00  -1.2163045406001671e+00  -1.2816387457304581e+00  -1.3447394495684573e+00  -1.4054989719172364e+00  -1.4638235162867888e+00  -1.5196335643069876e+00  -1.5728642098137890e+00  -1.6234654298479445e+00  -1.6714022899230316e+00  -1.7166550810606753e+00  -1.7592193862586314e+00  -1.7991060742549849e+00  -1.8363412186820816e+00  -1.8709659409695631e+00  -1.9030361756593146e+00  -1.9326223571379788e+00  -1.9598090271761199e+00  -1.9846943630874943e+00  -2.0073896267868423e+00  -2.0280185355288296e+00  -2.0467165556519649e+00  -2.0636301212262644e+00  -2.0789157801077609e+00  -2.0927392705314212e+00  -2.1052745320202604e+00  -2.1167026550451711e+00  -2.1272107745291486e+00  -2.1369909129422737e+00  -2.1462387793705862e+00  -2.1551525315528623e+00  -2.1639315084541857e+00  -2.1727749414736732e+00  -2.1818806528557229e+00  -2.1914437502798449e+00  -2.2016553269342283e+00  -2.2127011766242410e+00  -2.2247605336215330e+00  -2.2380048470160174e+00  -2.2525965992866710e+00  -2.2686881786544992e+00  -2.2864208145201204e+00  -2.3059235849192570e+00  -2.3273125044535408e+00  -2.3506897005748586e+00  -2.3761426854242851e+00  -2.4037437296582809e+00  -2.4335493438439388e+00  -2.4655998720815817e+00  -2.4999192015283986e+00  </DataArray> 
</PointData> 
</Piece>
</UnstructuredGrid>
</VTKFile>