<?xml version="1.0"?>
<VTKFile type="UnstructuredGrid"  version="0.1"  >
<UnstructuredGrid>
<Piece  NumberOfPoints="65" NumberOfCells="64">
<Points>
<DataArray  type="Float64"  NumberOfComponents="3"  format="ascii">0 0 0  0.0625 0 0  0.125 0 0  0.1875 0 0  0.25 0 0  0.3125 0 0  0.375 0 0  0.4375 0 0  0.5 0 0  0.5625 0 0  0.625 0 0  0.6875 0 0  0.75 0 0  0.8125 0 0  0.875 0 0  0.9375 0 0  1 0 0  1.0625 0 0  1.125 0 0  1.1875 0 0  1.25 0 0  1.3125 0 0  1.375 0 0  1.4375 0 0  1.5 0 0  1.5625 0 0  1.625 0 0  1.6875 0 0  1.75 0 0  1.8125 0 0  1.875 0 0  1.9375 0 0  2 0 0  2.0625 0 0  2.125 0 0  2.1875 0 0  2.25 0 0  2.3125 0 0  2.375 0 0  2.4375 0 0  2.5 0 0  2.5625 0 0  2.625 0 0  2.6875 0 0  2.75 0 0  2.8125 0 0  2.875 0 0  2.9375 0 0  3 0 0  3.0625 0 0  3.125 0 0  3.1875 0 0  3.25 0 0  3.3125 0 0  3.375 0 0  3.4375 0 0  3.5 0 0  3.5625 0 0  3.625 0 0  3.6875 0 0  3.75 0 0  3.8125 0 0  3.875 0 0  3.9375 0 0  4 0 0  </DataArray>
</Points>
<Cells>
<DataArray  type="UInt32"  Name="connectivity"  format="ascii">0 1  1 2  2 3  3 4  4 5  5 6  6 7  7 8  8 9  9 10  10 11  11 12  12 13  13 14  14 15  15 16  16 17  17 18  18 19  19 20  20 21  21 22  22 23  23 24  24 25  25 26  26 27  27 28  28 29  29 30  30 31  31 32  32 33  33 34  34 35  35 36  36 37  37 38  38 39  39 40  40 41  41 42  42 43  43 44  44 45  45 46  46 47  47 48  48 49  49 50  50 51  51 52  52 53  53 54  54 55  55 56  56 57  57 58  58 59  59 60  60 61  61 62  62 63  63 64  </DataArray>
<DataArray  type="UInt32"  Name="offsets"  format="ascii">2 4 6 8 10 12 14 16 18 20 22 24 26 28 30 32 34 36 38 40 42 44 46 48 50 52 54 56 58 60 62 64 66 68 70 72 74 76 78 80 82 84 86 88 90 92 94 96 98 100 102 104 106 108 110 112 114 116 118 120 122 124 126 128 </DataArray>
<DataArray  type="UInt8"  Name="types"  format="ascii">3 3 3 3 3 3 3 3 3 3 3 3 3 3 3 3 3 3 3 3 3 3 3 3 3 3 3 3 3 3 3 3 3 3 3 3 3 3 3 3 3 3 3 3 3 3 3 3 3 3 3 3 3 3 3 3 3 3 3 3 3 3 3 3 </DataArray>
</Cells>
<PointData  Scalars="U"> 
<DataArray  type="Float64"  Name="U"  format="ascii">0.0000000000000000e+00  1.6329458188123452e-01  3.2140520656701876e-01  4.7433187436385216e-01  6.2207458555427286e-01  7.6463334039785180e-01  9.0200813913224531e-01  1.0341989819742941e+00  1.1612058691211549e+00  1.2830288007514514e+00  1.3996677770264334e+00  1.5111227980911299e+00  1.6173938640754906e+00  1.7184809750954977e+00  1.8143841312542508e+00  1.9051033326430020e+00  1.9906385793421477e+00  2.0709898714221606e+00  2.1461572089444636e+00  2.2161405919622355e+00  2.2809400205211463e+00  2.3405554946600167e+00  2.3949870144114040e+00  2.4442345798021048e+00  2.4882981908535706e+00  2.5271778475822431e+00  2.5608735499998025e+00  2.5893852981133154e+00  2.6127130919252948e+00  2.6308569314336627e+00  2.6438168166316132e+00  2.6515927475073702e+00  2.6541847240438439e+00  2.6515927462181690e+00  2.6438168140011484e+00  2.6308569273565592e+00  2.6127130862403645e+00  2.5893852905997981e+00  2.5608735403723291e+00  2.5271778354845202e+00  2.4882981758507614e+00  2.4442345613719061e+00  2.3949869919337949e+00  2.3405554674056948e+00  2.2809399876386465e+00  2.2161405524637541e+00  2.1461571616904149e+00  2.0709898151045181e+00  1.9906385124666406e+00  1.9051032535102495e+00  1.8143840379399536e+00  1.7184808654298263e+00  1.6173937356218322e+00  1.5111226481243953e+00  1.3996676025111372e+00  1.2830285983198260e+00  1.1612056350515672e+00  1.0341987121702707e+00  9.0200782910242960e-01  7.6463298523723544e-01  6.2207417992706204e-01  4.7433141248833799e-01  3.2140468220282853e-01  1.6329398831933997e-01  -6.6994414426522028e-07  </DataArray> 
</PointData> 
</Piece>
</UnstructuredGrid>
</VTKFile>