<?xml version="1.0"?>
<VTKFile type="UnstructuredGrid"  version="0.1"  >
<UnstructuredGrid>
<Piece  NumberOfPoints="65" NumberOfCells="64">
<Points>
<DataArray  type="Float64"  NumberOfComponents="3"  format="ascii">0 0 0  0.0625 0 0  0.125 0 0  0.1875 0 0  0.25 0 0  0.3125 0 0  0.375 0 0  0.4375 0 0  0.5 0 0  0.5625 0 0  0.625 0 0  0.6875 0 0  0.75 0 0  0.8125 0 0  0.875 0 0  0.9375 0 0  1 0 0  1.0625 0 0  1.125 0 0  1.1875 0 0  1.25 0 0  1.3125 0 0  1.375 0 0  1.4375 0 0  1.5 0 0  1.5625 0 0  1.625 0 0  1.6875 0 0  1.75 0 0  1.8125 0 0  1.875 0 0  1.9375 0 0  2 0 0  2.0625 0 0  2.125 0 0  2.1875 0 0  2.25 0 0  2.3125 0 0  2.375 0 0  2.4375 0 0  2.5 0 0  2.5625 0 0  2.625 0 0  2.6875 0 0  2.75 0 0  2.8125 0 0  2.875 0 0  2.9375 0 0  3 0 0  3.0625 0 0  3.125 0 0  3.1875 0 0  3.25 0 0  3.3125 0 0  3.375 0 0  3.4375 0 0  3.5 0 0  3.5625 0 0  3.625 0 0  3.6875 0 0  3.75 0 0  3.8125 0 0  3.875 0 0  3.9375 0 0  4 0 0  </DataArray>
</Points>
<Cells>
<DataArray  type="UInt32"  Name="connectivity"  format="ascii">0 1  1 2  2 3  3 4  4 5  5 6  6 7  7 8  8 9  9 10  10 11  11 12  12 13  13 14  14 15  15 16  16 17  17 18  18 19  19 20  20 21  21 22  22 23  23 24  24 25  25 26  26 27  27 28  28 29  29 30  30 31  31 32  32 33  33 34  34 35  35 36  36 37  37 38  38 39  39 40  40 41  41 42  42 43  43 44  44 45  45 46  46 47  47 48  48 49  49 50  50 51  51 52  52 53  53 54  54 55  55 56  56 57  57 58  58 59  59 60  60 61  61 62  62 63  63 64  </DataArray>
<DataArray  type="UInt32"  Name="offsets"  format="ascii">2 4 6 8 10 12 14 16 18 20 22 24 26 28 30 32 34 36 38 40 42 44 46 48 50 52 54 56 58 60 62 64 66 68 70 72 74 76 78 80 82 84 86 88 90 92 94 96 98 100 102 104 106 108 110 112 114 116 118 120 122 124 126 128 </DataArray>
<DataArray  type="UInt8"  Name="types"  format="ascii">3 3 3 3 3 3 3 3 3 3 3 3 3 3 3 3 3 3 3 3 3 3 3 3 3 3 3 3 3 3 3 3 3 3 3 3 3 3 3 3 3 3 3 3 3 3 3 3 3 3 3 3 3 3 3 3 3 3 3 3 3 3 3 3 </DataArray>
</Cells>
<PointData  Scalars="U"> 
<DataArray  type="Float64"  Name="U"  format="ascii">0.0000000000000000e+00  1.2865591130715379e-03  -3.1659723016332565e-03  -1.2339484458099036e-02  -2.5274070917728528e-02  -4.1090742929073776e-02  -5.9007469723690760e-02  -7.8347914033293636e-02  -9.8543149111305836e-02  -1.1912738140472721e-01  -1.3972916552377648e-01  -1.6005976300192312e-01  -1.7990020427455791e-01  -1.9908834366066364e-01  -2.1750684028060918e-01  -2.3507263303954329e-01  -2.5172816061750986e-01  -2.6743433674406547e-01  -2.8216513308809871e-01  -2.9590353763485894e-01  -3.0863862843534556e-01  -3.2036351238934724e-01  -3.3107390973286721e-01  -3.4076720458399895e-01  -3.4944182194123996e-01  -3.5709682724450481e-01  -3.6373167400584788e-01  -3.6934604783005998e-01  -3.7393977206733126e-01  -3.7751275247662069e-01  -3.8006494681951253e-01  -3.8159635136585102e-01  -3.8210700087585736e-01  -3.8159698265705644e-01  -3.8006646972976493e-01  -3.7751578408697861e-01  -3.7394550996111819e-01  -3.6935669092876322e-01  -3.6375116641399563e-01  -3.5713213654155157e-01  -3.4950509436318034e-01  -3.4087933732372289e-01  -3.3127037202293480e-01  -3.2070366352071572e-01  -3.0922035471688258e-01  -2.9688578695764373e-01  -2.8380187031822468e-01  -2.7012454000863706e-01  -2.5608762451696881e-01  -2.4203433935316537e-01  -2.2845717700360152e-01  -2.1604604809235511e-01  -2.0574302756063520e-01  -1.9879994667977308e-01  -1.9683248146080723e-01  -2.0186168443958627e-01  -2.1633171280181213e-01  -2.4309165244918168e-01  -2.8533069992569199e-01  -3.4646018307609711e-01  -4.2994304744496847e-01  -5.3908073149783131e-01  -6.7677710768139687e-01  -8.4530703552650366e-01  -1.0461206697370673e+00  </DataArray> 
</PointData> 
</Piece>
</UnstructuredGrid>
</VTKFile>