<?xml version="1.0"?>
<VTKFile type="UnstructuredGrid"  version="0.1"  >
<UnstructuredGrid>
<Piece  NumberOfPoints="65" NumberOfCells="64">
<Points>
<DataArray  type="Float64"  NumberOfComponents="3"  format="ascii">0 0 0  0.0625 0 0  0.125 0 0  0.1875 0 0  0.25 0 0  0.3125 0 0  0.375 0 0  0.4375 0 0  0.5 0 0  0.5625 0 0  0.625 0 0  0.6875 0 0  0.75 0 0  0.8125 0 0  0.875 0 0  0.9375 0 0  1 0 0  1.0625 0 0  1.125 0 0  1.1875 0 0  1.25 0 0  1.3125 0 0  1.375 0 0  1.4375 0 0  1.5 0 0  1.5625 0 0  1.625 0 0  1.6875 0 0  1.75 0 0  1.8125 0 0  1.875 0 0  1.9375 0 0  2 0 0  2.0625 0 0  2.125 0 0  2.1875 0 0  2.25 0 0  2.3125 0 0  2.375 0 0  2.4375 0 0  2.5 0 0  2.5625 0 0  2.625 0 0  2.6875 0 0  2.75 0 0  2.8125 0 0  2.875 0 0  2.9375 0 0  3 0 0  3.0625 0 0  3.125 0 0  3.1875 0 0  3.25 0 0  3.3125 0 0  3.375 0 0  3.4375 0 0  3.5 0 0  3.5625 0 0  3.625 0 0  3.6875 0 0  3.75 0 0  3.8125 0 0  3.875 0 0  3.9375 0 0  4 0 0  </DataArray>
</Points>
<Cells>
<DataArray  type="UInt32"  Name="connectivity"  format="ascii">0 1  1 2  2 3  3 4  4 5  5 6  6 7  7 8  8 9  9 10  10 11  11 12  12 13  13 14  14 15  15 16  16 17  17 18  18 19  19 20  20 21  21 22  22 23  23 24  24 25  25 26  26 27  27 28  28 29  29 30  30 31  31 32  32 33  33 34  34 35  35 36  36 37  37 38  38 39  39 40  40 41  41 42  42 43  43 44  44 45  45 46  46 47  47 48  48 49  49 50  50 51  51 52  52 53  53 54  54 55  55 56  56 57  57 58  58 59  59 60  60 61  61 62  62 63  63 64  </DataArray>
<DataArray  type="UInt32"  Name="offsets"  format="ascii">2 4 6 8 10 12 14 16 18 20 22 24 26 28 30 32 34 36 38 40 42 44 46 48 50 52 54 56 58 60 62 64 66 68 70 72 74 76 78 80 82 84 86 88 90 92 94 96 98 100 102 104 106 108 110 112 114 116 118 120 122 124 126 128 </DataArray>
<DataArray  type="UInt8"  Name="types"  format="ascii">3 3 3 3 3 3 3 3 3 3 3 3 3 3 3 3 3 3 3 3 3 3 3 3 3 3 3 3 3 3 3 3 3 3 3 3 3 3 3 3 3 3 3 3 3 3 3 3 3 3 3 3 3 3 3 3 3 3 3 3 3 3 3 3 </DataArray>
</Cells>
<PointData  Scalars="U"> 
<DataArray  type="Float64"  Name="U"  format="ascii">0.0000000000000000e+00  -3.6465910895229067e-03  -8.1711062445895943e-03  -1.3463383811602281e-02  -1.9410783764294011e-02  -2.5901011004326718e-02  -3.2824593356612732e-02  -4.0076886556908019e-02  -4.7559609190932335e-02  -5.5181912193532384e-02  -6.2861011525995256e-02  -7.0522446783090054e-02  -7.8100033018275908e-02  -8.5535579664097083e-02  -9.2778434356371314e-02  -9.9784912460421149e-02  -1.0651766664971724e-01  -1.1294502881050369e-01  -1.1904035879348647e-01  -1.2478142306933453e-01  -1.3014981593032207e-01  -1.3513043710985531e-01  -1.3971102719501735e-01  -1.4388176505715025e-01  -1.4763493083235169e-01  -1.5096462623213935e-01  -1.5386655565993654e-01  -1.5633786893895141e-01  -1.5837705604886523e-01  -1.5998390057250103e-01  -1.6115949418859957e-01  -1.6190630561569691e-01  -1.6222831575952712e-01  -1.6213122490884799e-01  -1.6162273069056984e-01  -1.6071289372184935e-01  -1.5941460058831233e-01  -1.5774412896857717e-01  -1.5572183428424213e-01  -1.5337296851418983e-01  -1.5072864034088559e-01  -1.4782692876128684e-01  -1.4471415234392535e-01  -1.4144629936956638e-01  -1.3809060082035246e-01  -1.3472721843634830e-01  -1.3145102557500823e-01  -1.2837339397311517e-01  -1.2562389254005624e-01  -1.2335179697488051e-01  -1.2172721836559600e-01  -1.2094165313603446e-01  -1.2120770155249404e-01  -1.2275768450272478e-01  -1.2584086926388913e-01  -1.3071892001306212e-01  -1.3765938837053238e-01  -1.4692704566471396e-01  -1.5877293428706268e-01  -1.7342135756043953e-01  -1.9105521810133208e-01  -2.1180055854942781e-01  -2.3571138126673860e-01  -2.6275623942345377e-01  -2.9280832683319419e-01  </DataArray> 
</PointData> 
</Piece>
</UnstructuredGrid>
</VTKFile>