<?xml version="1.0"?>
<VTKFile type="UnstructuredGrid"  version="0.1"  >
<UnstructuredGrid>
<Piece  NumberOfPoints="65" NumberOfCells="64">
<Points>
<DataArray  type="Float64"  NumberOfComponents="3"  format="ascii">0 0 0  0.0625 0 0  0.125 0 0  0.1875 0 0  0.25 0 0  0.3125 0 0  0.375 0 0  0.4375 0 0  0.5 0 0  0.5625 0 0  0.625 0 0  0.6875 0 0  0.75 0 0  0.8125 0 0  0.875 0 0  0.9375 0 0  1 0 0  1.0625 0 0  1.125 0 0  1.1875 0 0  1.25 0 0  1.3125 0 0  1.375 0 0  1.4375 0 0  1.5 0 0  1.5625 0 0  1.625 0 0  1.6875 0 0  1.75 0 0  1.8125 0 0  1.875 0 0  1.9375 0 0  2 0 0  2.0625 0 0  2.125 0 0  2.1875 0 0  2.25 0 0  2.3125 0 0  2.375 0 0  2.4375 0 0  2.5 0 0  2.5625 0 0  2.625 0 0  2.6875 0 0  2.75 0 0  2.8125 0 0  2.875 0 0  2.9375 0 0  3 0 0  3.0625 0 0  3.125 0 0  3.1875 0 0  3.25 0 0  3.3125 0 0  3.375 0 0  3.4375 0 0  3.5 0 0  3.5625 0 0  3.625 0 0  3.6875 0 0  3.75 0 0  3.8125 0 0  3.875 0 0  3.9375 0 0  4 0 0  </DataArray>
</Points>
<Cells>
<DataArray  type="UInt32"  Name="connectivity"  format="ascii">0 1  1 2  2 3  3 4  4 5  5 6  6 7  7 8  8 9  9 10  10 11  11 12  12 13  13 14  14 15  15 16  16 17  17 18  18 19  19 20  20 21  21 22  22 23  23 24  24 25  25 26  26 27  27 28  28 29  29 30  30 31  31 32  32 33  33 34  34 35  35 36  36 37  37 38  38 39  39 40  40 41  41 42  42 43  43 44  44 45  45 46  46 47  47 48  48 49  49 50  50 51  51 52  52 53  53 54  54 55  55 56  56 57  57 58  58 59  59 60  60 61  61 62  62 63  63 64  </DataArray>
<DataArray  type="UInt32"  Name="offsets"  format="ascii">2 4 6 8 10 12 14 16 18 20 22 24 26 28 30 32 34 36 38 40 42 44 46 48 50 52 54 56 58 60 62 64 66 68 70 72 74 76 78 80 82 84 86 88 90 92 94 96 98 100 102 104 106 108 110 112 114 116 118 120 122 124 126 128 </DataArray>
<DataArray  type="UInt8"  Name="types"  format="ascii">3 3 3 3 3 3 3 3 3 3 3 3 3 3 3 3 3 3 3 3 3 3 3 3 3 3 3 3 3 3 3 3 3 3 3 3 3 3 3 3 3 3 3 3 3 3 3 3 3 3 3 3 3 3 3 3 3 3 3 3 3 3 3 3 </DataArray>
</Cells>
<PointData  Scalars="U"> 
<DataArray  type="Float64"  Name="U"  format="ascii">0.0000000000000000e+00  -7.1661316087999583e-02  -1.4489543265522389e-01  -2.1939144724304405e-01  -2.9484079230762633e-01  -3.7093842050969850e-01  -4.4738397669948243e-01  -5.2388295228972193e-01  -6.0014781793580008e-01  -6.7589913070745022e-01  -7.5086661223044160e-01  -8.2479019458639313e-01  -8.9742103107113880e-01  -9.6852246921297058e-01  -1.0378709837277957e+00  -1.1052570673254680e+00  -1.1704860774680708e+00  -1.2333790373061047e+00  -1.2937733890737015e+00  -1.3515236982030225e+00  -1.4065023063175188e+00  -1.4585999310835562e+00  -1.5077262106430800e+00  -1.5538101900230907e+00  -1.5968007465307259e+00  -1.6366669507089886e+00  -1.6733983589642145e+00  -1.7070052335014660e+00  -1.7375186847400002e+00  -1.7649907309513362e+00  -1.7894942694921114e+00  -1.8111229537182960e+00  -1.8299909694915921e+00  -1.8462327051471588e+00  -1.8600023089064390e+00  -1.8714731280094703e+00  -1.8808370243236736e+00  -1.8883035618726169e+00  -1.8940990626255063e+00  -1.8984655279976070e+00  -1.9016594248288583e+00  -1.9039503361218639e+00  -1.9056194785141052e+00  -1.9069580903091827e+00  -1.9082656958687378e+00  -1.9098482542354158e+00  -1.9120162019778268e+00  -1.9150824023769470e+00  -1.9193600151625247e+00  -1.9251603030088182e+00  -1.9327903928613837e+00  -1.9425510118415918e+00  -1.9547342189157360e+00  -1.9696211546771967e+00  -1.9874798324340504e+00  -2.0085629942875149e+00  -2.0331060560026915e+00  -2.0613251641941113e+00  -2.0934153886654072e+00  -2.1295490716549992e+00  -2.1698743542576375e+00  -2.2145138984341286e+00  -2.2635638208169109e+00  -2.3170928520044254e+00  -2.3751417322573625e+00  </DataArray> 
</PointData> 
</Piece>
</UnstructuredGrid>
</VTKFile>