<?xml version="1.0"?>
<VTKFile type="UnstructuredGrid"  version="0.1"  >
<UnstructuredGrid>
<Piece  NumberOfPoints="65" NumberOfCells="64">
<Points>
<DataArray  type="Float64"  NumberOfComponents="3"  format="ascii">0 0 0  0.0625 0 0  0.125 0 0  0.1875 0 0  0.25 0 0  0.3125 0 0  0.375 0 0  0.4375 0 0  0.5 0 0  0.5625 0 0  0.625 0 0  0.6875 0 0  0.75 0 0  0.8125 0 0  0.875 0 0  0.9375 0 0  1 0 0  1.0625 0 0  1.125 0 0  1.1875 0 0  1.25 0 0  1.3125 0 0  1.375 0 0  1.4375 0 0  1.5 0 0  1.5625 0 0  1.625 0 0  1.6875 0 0  1.75 0 0  1.8125 0 0  1.875 0 0  1.9375 0 0  2 0 0  2.0625 0 0  2.125 0 0  2.1875 0 0  2.25 0 0  2.3125 0 0  2.375 0 0  2.4375 0 0  2.5 0 0  2.5625 0 0  2.625 0 0  2.6875 0 0  2.75 0 0  2.8125 0 0  2.875 0 0  2.9375 0 0  3 0 0  3.0625 0 0  3.125 0 0  3.1875 0 0  3.25 0 0  3.3125 0 0  3.375 0 0  3.4375 0 0  3.5 0 0  3.5625 0 0  3.625 0 0  3.6875 0 0  3.75 0 0  3.8125 0 0  3.875 0 0  3.9375 0 0  4 0 0  </DataArray>
</Points>
<Cells>
<DataArray  type="UInt32"  Name="connectivity"  format="ascii">0 1  1 2  2 3  3 4  4 5  5 6  6 7  7 8  8 9  9 10  10 11  11 12  12 13  13 14  14 15  15 16  16 17  17 18  18 19  19 20  20 21  21 22  22 23  23 24  24 25  25 26  26 27  27 28  28 29  29 30  30 31  31 32  32 33  33 34  34 35  35 36  36 37  37 38  38 39  39 40  40 41  41 42  42 43  43 44  44 45  45 46  46 47  47 48  48 49  49 50  50 51  51 52  52 53  53 54  54 55  55 56  56 57  57 58  58 59  59 60  60 61  61 62  62 63  63 64  </DataArray>
<DataArray  type="UInt32"  Name="offsets"  format="ascii">2 4 6 8 10 12 14 16 18 20 22 24 26 28 30 32 34 36 38 40 42 44 46 48 50 52 54 56 58 60 62 64 66 68 70 72 74 76 78 80 82 84 86 88 90 92 94 96 98 100 102 104 106 108 110 112 114 116 118 120 122 124 126 128 </DataArray>
<DataArray  type="UInt8"  Name="types"  format="ascii">3 3 3 3 3 3 3 3 3 3 3 3 3 3 3 3 3 3 3 3 3 3 3 3 3 3 3 3 3 3 3 3 3 3 3 3 3 3 3 3 3 3 3 3 3 3 3 3 3 3 3 3 3 3 3 3 3 3 3 3 3 3 3 3 </DataArray>
</Cells>
<PointData  Scalars="U"> 
<DataArray  type="Float64"  Name="U"  format="ascii">0.0000000000000000e+00  -9.7709954713969364e-03  -1.9789079146157035e-02  -3.0017633176693825e-02  -4.0418118630188821e-02  -5.0950401442508141e-02  -6.1573124969390131e-02  -7.2244056298511605e-02  -8.2920454146882830e-02  -9.3559443311096654e-02  -1.0411837540694802e-01  -1.1455518126525915e-01  -1.2482870708292634e-01  -1.3489903607675707e-01  -1.4472778723758628e-01  -1.5427838908010394e-01  -1.6351633565920171e-01  -1.7240941688518463e-01  -1.8092792499956009e-01  -1.8904484345271480e-01  -1.9673601484014905e-01  -2.0398029160348660e-01  -2.1075967277584390e-01  -2.1705942743696233e-01  -2.2286820845055252e-01  -2.2817815698480604e-01  -2.3298499991120439e-01  -2.3728814209640126e-01  -2.4109075163368510e-01  -2.4439983922671163e-01  -2.4722633125730631e-01  -2.4958513216105183e-01  -2.5149517506597979e-01  -2.5297945727705662e-01  -2.5406505417467012e-01  -2.5478310758247186e-01  -2.5516878252207659e-01  -2.5526118507652945e-01  -2.5510323460197987e-01  -2.5474148276728870e-01  -2.5422587402535679e-01  -2.5360943841591987e-01  -2.5294791009647682e-01  -2.5229927285093745e-01  -2.5172322155652943e-01  -2.5128053772970804e-01  -2.5103239166678576e-01  -2.5103956057321103e-01  -2.5136157120193670e-01  -2.5205578533965300e-01  -2.5317643178905680e-01  -2.5477360995168846e-01  -2.5689225849552805e-01  -2.5957114426331385e-01  -2.6284190845316507e-01  -2.6672811068047930e-01  -2.7124439528222027e-01  -2.7639579554331334e-01  -2.8217715457515724e-01  -2.8857272551422936e-01  -2.9555593686396514e-01  -3.0308944481276839e-01  -3.1112537314228411e-01  -3.1960576922300837e-01  -3.2846334449161846e-01  </DataArray> 
</PointData> 
</Piece>
</UnstructuredGrid>
</VTKFile>