<?xml version="1.0"?>
<VTKFile type="UnstructuredGrid"  version="0.1"  >
<UnstructuredGrid>
<Piece  NumberOfPoints="65" NumberOfCells="64">
<Points>
<DataArray  type="Float64"  NumberOfComponents="3"  format="ascii">0 0 0  0.0625 0 0  0.125 0 0  0.1875 0 0  0.25 0 0  0.3125 0 0  0.375 0 0  0.4375 0 0  0.5 0 0  0.5625 0 0  0.625 0 0  0.6875 0 0  0.75 0 0  0.8125 0 0  0.875 0 0  0.9375 0 0  1 0 0  1.0625 0 0  1.125 0 0  1.1875 0 0  1.25 0 0  1.3125 0 0  1.375 0 0  1.4375 0 0  1.5 0 0  1.5625 0 0  1.625 0 0  1.6875 0 0  1.75 0 0  1.8125 0 0  1.875 0 0  1.9375 0 0  2 0 0  2.0625 0 0  2.125 0 0  2.1875 0 0  2.25 0 0  2.3125 0 0  2.375 0 0  2.4375 0 0  2.5 0 0  2.5625 0 0  2.625 0 0  2.6875 0 0  2.75 0 0  2.8125 0 0  2.875 0 0  2.9375 0 0  3 0 0  3.0625 0 0  3.125 0 0  3.1875 0 0  3.25 0 0  3.3125 0 0  3.375 0 0  3.4375 0 0  3.5 0 0  3.5625 0 0  3.625 0 0  3.6875 0 0  3.75 0 0  3.8125 0 0  3.875 0 0  3.9375 0 0  4 0 0  </DataArray>
</Points>
<Cells>
<DataArray  type="UInt32"  Name="connectivity"  format="ascii">0 1  1 2  2 3  3 4  4 5  5 6  6 7  7 8  8 9  9 10  10 11  11 12  12 13  13 14  14 15  15 16  16 17  17 18  18 19  19 20  20 21  21 22  22 23  23 24  24 25  25 26  26 27  27 28  28 29  29 30  30 31  31 32  32 33  33 34  34 35  35 36  36 37  37 38  38 39  39 40  40 41  41 42  42 43  43 44  44 45  45 46  46 47  47 48  48 49  49 50  50 51  51 52  52 53  53 54  54 55  55 56  56 57  57 58  58 59  59 60  60 61  61 62  62 63  63 64  </DataArray>
<DataArray  type="UInt32"  Name="offsets"  format="ascii">2 4 6 8 10 12 14 16 18 20 22 24 26 28 30 32 34 36 38 40 42 44 46 48 50 52 54 56 58 60 62 64 66 68 70 72 74 76 78 80 82 84 86 88 90 92 94 96 98 100 102 104 106 108 110 112 114 116 118 120 122 124 126 128 </DataArray>
<DataArray  type="UInt8"  Name="types"  format="ascii">3 3 3 3 3 3 3 3 3 3 3 3 3 3 3 3 3 3 3 3 3 3 3 3 3 3 3 3 3 3 3 3 3 3 3 3 3 3 3 3 3 3 3 3 3 3 3 3 3 3 3 3 3 3 3 3 3 3 3 3 3 3 3 3 </DataArray>
</Cells>
<PointData  Scalars="U"> 
<DataArray  type="Float64"  Name="U"  format="ascii">0.0000000000000000e+00  -9.1555194236219248e-03  -1.8633406621179079e-02  -2.8391782952261128e-02  -3.8386391304866957e-02  -4.8571051106771387e-02  -5.8898158363567911e-02  -6.9319154756996806e-02  -7.9785009152217923e-02  -9.0246694009330275e-02  -1.0065563404032513e-01  -1.1096413074665047e-01  -1.2112575425386021e-01  -1.3109570374623333e-01  -1.4083112843550427e-01  -1.5029140815136646e-01  -1.5943840200134216e-01  -1.6823665896701448e-01  -1.7665359471556685e-01  -1.8465964286568198e-01  -1.9222837998614398e-01  -1.9933663087568407e-01  -2.0596455947402828e-01  -2.1209574885392526e-01  -2.1771727651171491e-01  -2.2281978709895603e-01  -2.2739756721803975e-01  -2.3144862634552438e-01  -2.3497478285721790e-01  -2.3798175831156820e-01  -2.4047928065346591e-01  -2.4248119194464945e-01  -2.4400556049952427e-01  -2.4507479380705441e-01  -2.4571574449940867e-01  -2.4595980469391429e-01  -2.4584298054392967e-01  -2.4540593668554983e-01  -2.4469400073773498e-01  -2.4375711590510368e-01  -2.4264973133497564e-01  -2.4143061531080909e-01  -2.4016257803075697e-01  -2.3891209896091711e-01  -2.3774883976556119e-01  -2.3674503344946443e-01  -2.3597475651922317e-01  -2.3551306560027799e-01  -2.3543500169487347e-01  -2.3581447809333028e-01  -2.3672305173548872e-01  -2.3822860394151063e-01  -2.4039392743410620e-01  -2.4327528031475257e-01  -2.4692095386671351e-01  -2.5136980452202795e-01  -2.5664989236643215e-01  -2.6277725956591275e-01  -2.6975484289607704e-01  -2.7757160853868235e-01  -2.8620191473997958e-01  -2.9560524414424982e-01  -3.0572622528736298e-01  -3.1649498675763899e-01  -3.2782792760720708e-01  </DataArray> 
</PointData> 
</Piece>
</UnstructuredGrid>
</VTKFile>