<?xml version="1.0"?>
<VTKFile type="UnstructuredGrid"  version="0.1"  >
<UnstructuredGrid>
<Piece  NumberOfPoints="65" NumberOfCells="64">
<Points>
<DataArray  type="Float64"  NumberOfComponents="3"  format="ascii">0 0 0  0.0625 0 0  0.125 0 0  0.1875 0 0  0.25 0 0  0.3125 0 0  0.375 0 0  0.4375 0 0  0.5 0 0  0.5625 0 0  0.625 0 0  0.6875 0 0  0.75 0 0  0.8125 0 0  0.875 0 0  0.9375 0 0  1 0 0  1.0625 0 0  1.125 0 0  1.1875 0 0  1.25 0 0  1.3125 0 0  1.375 0 0  1.4375 0 0  1.5 0 0  1.5625 0 0  1.625 0 0  1.6875 0 0  1.75 0 0  1.8125 0 0  1.875 0 0  1.9375 0 0  2 0 0  2.0625 0 0  2.125 0 0  2.1875 0 0  2.25 0 0  2.3125 0 0  2.375 0 0  2.4375 0 0  2.5 0 0  2.5625 0 0  2.625 0 0  2.6875 0 0  2.75 0 0  2.8125 0 0  2.875 0 0  2.9375 0 0  3 0 0  3.0625 0 0  3.125 0 0  3.1875 0 0  3.25 0 0  3.3125 0 0  3.375 0 0  3.4375 0 0  3.5 0 0  3.5625 0 0  3.625 0 0  3.6875 0 0  3.75 0 0  3.8125 0 0  3.875 0 0  3.9375 0 0  4 0 0  </DataArray>
</Points>
<Cells>
<DataArray  type="UInt32"  Name="connectivity"  format="ascii">0 1  1 2  2 3  3 4  4 5  5 6  6 7  7 8  8 9  9 10  10 11  11 12  12 13  13 14  14 15  15 16  16 17  17 18  18 19  19 20  20 21  21 22  22 23  23 24  24 25  25 26  26 27  27 28  28 29  29 30  30 31  31 32  32 33  33 34  34 35  35 36  36 37  37 38  38 39  39 40  40 41  41 42  42 43  43 44  44 45  45 46  46 47  47 48  48 49  49 50  50 51  51 52  52 53  53 54  54 55  55 56  56 57  57 58  58 59  59 60  60 61  61 62  62 63  63 64  </DataArray>
<DataArray  type="UInt32"  Name="offsets"  format="ascii">2 4 6 8 10 12 14 16 18 20 22 24 26 28 30 32 34 36 38 40 42 44 46 48 50 52 54 56 58 60 62 64 66 68 70 72 74 76 78 80 82 84 86 88 90 92 94 96 98 100 102 104 106 108 110 112 114 116 118 120 122 124 126 128 </DataArray>
<DataArray  type="UInt8"  Name="types"  format="ascii">3 3 3 3 3 3 3 3 3 3 3 3 3 3 3 3 3 3 3 3 3 3 3 3 3 3 3 3 3 3 3 3 3 3 3 3 3 3 3 3 3 3 3 3 3 3 3 3 3 3 3 3 3 3 3 3 3 3 3 3 3 3 3 3 </DataArray>
</Cells>
<PointData  Scalars="U"> 
<DataArray  type="Float64"  Name="U"  format="ascii">0.0000000000000000e+00  -2.6809433415565388e-02  -5.7971936846932026e-02  -9.2918130358776538e-02  -1.3108827013012639e-01  -1.7193682585995373e-01  -2.1493669381147829e-01  -2.5958294860046260e-01  -3.0539605625388722e-01  -3.5192449306616119e-01  -3.9874673811326755e-01  -4.4547263069089277e-01  -4.9174410623737208e-01  -5.3723534445810384e-01  -5.8165238057318125e-01  -6.2473224430866769e-01  -6.6624170116138137e-01  -7.0597567657168792e-01  -7.4375544616482681e-01  -7.7942667459553527e-01  -8.1285738232858651e-01  -8.4393591457572759e-01  -8.7256898028647145e-01  -8.9867982223302423e-01  -9.2220657244432536e-01  -9.4310084102586367e-01  -9.6132658110406111e-01  -9.7685926844699478e-01  -9.8968543125200503e-01  -9.9980256349061158e-01  -1.0072194537217831e+00  -1.0119569599215734e+00  -1.0140492589822734e+00  -1.0135455963452924e+00  -1.0105125559132155e+00  -1.0050368620817354e+00  -9.9722871363099697e-01  -9.8722563263291718e-01  -9.7519678999651849e-01  -9.6134774263047051e-01  -9.4592548570519963e-01  -9.2922368790015231e-01  -9.1158793914686143e-01  -8.9342080114884526e-01  -8.7518641338645597e-01  -8.5741437442478852e-01  -8.4070259353577681e-01  -8.2571879448418228e-01  -8.1320035526003820e-01  -8.0395218757430331e-01  -7.9884240028064457e-01  -7.9879555260816359e-01  -8.0478338579749820e-01  -8.1781302335951989e-01  -8.3891274687988304e-01  -8.6911558051259530e-01  -9.0944104599116249e-01  -9.6087557300250726e-01  -1.0243521584609396e+00  -1.1007299540882292e+00  -1.1907745171474429e+00  -1.2951394782090582e+00  -1.4143503587202926e+00  -1.5487912089036071e+00  -1.6986946351059471e+00  </DataArray> 
</PointData> 
</Piece>
</UnstructuredGrid>
</VTKFile>