<?xml version="1.0"?>
<VTKFile type="UnstructuredGrid"  version="0.1"  >
<UnstructuredGrid>
<Piece  NumberOfPoints="65" NumberOfCells="64">
<Points>
<DataArray  type="Float64"  NumberOfComponents="3"  format="ascii">0 0 0  0.0625 0 0  0.125 0 0  0.1875 0 0  0.25 0 0  0.3125 0 0  0.375 0 0  0.4375 0 0  0.5 0 0  0.5625 0 0  0.625 0 0  0.6875 0 0  0.75 0 0  0.8125 0 0  0.875 0 0  0.9375 0 0  1 0 0  1.0625 0 0  1.125 0 0  1.1875 0 0  1.25 0 0  1.3125 0 0  1.375 0 0  1.4375 0 0  1.5 0 0  1.5625 0 0  1.625 0 0  1.6875 0 0  1.75 0 0  1.8125 0 0  1.875 0 0  1.9375 0 0  2 0 0  2.0625 0 0  2.125 0 0  2.1875 0 0  2.25 0 0  2.3125 0 0  2.375 0 0  2.4375 0 0  2.5 0 0  2.5625 0 0  2.625 0 0  2.6875 0 0  2.75 0 0  2.8125 0 0  2.875 0 0  2.9375 0 0  3 0 0  3.0625 0 0  3.125 0 0  3.1875 0 0  3.25 0 0  3.3125 0 0  3.375 0 0  3.4375 0 0  3.5 0 0  3.5625 0 0  3.625 0 0  3.6875 0 0  3.75 0 0  3.8125 0 0  3.875 0 0  3.9375 0 0  4 0 0  </DataArray>
</Points>
<Cells>
<DataArray  type="UInt32"  Name="connectivity"  format="ascii">0 1  1 2  2 3  3 4  4 5  5 6  6 7  7 8  8 9  9 10  10 11  11 12  12 13  13 14  14 15  15 16  16 17  17 18  18 19  19 20  20 21  21 22  22 23  23 24  24 25  25 26  26 27  27 28  28 29  29 30  30 31  31 32  32 33  33 34  34 35  35 36  36 37  37 38  38 39  39 40  40 41  41 42  42 43  43 44  44 45  45 46  46 47  47 48  48 49  49 50  50 51  51 52  52 53  53 54  54 55  55 56  56 57  57 58  58 59  59 60  60 61  61 62  62 63  63 64  </DataArray>
<DataArray  type="UInt32"  Name="offsets"  format="ascii">2 4 6 8 10 12 14 16 18 20 22 24 26 28 30 32 34 36 38 40 42 44 46 48 50 52 54 56 58 60 62 64 66 68 70 72 74 76 78 80 82 84 86 88 90 92 94 96 98 100 102 104 106 108 110 112 114 116 118 120 122 124 126 128 </DataArray>
<DataArray  type="UInt8"  Name="types"  format="ascii">3 3 3 3 3 3 3 3 3 3 3 3 3 3 3 3 3 3 3 3 3 3 3 3 3 3 3 3 3 3 3 3 3 3 3 3 3 3 3 3 3 3 3 3 3 3 3 3 3 3 3 3 3 3 3 3 3 3 3 3 3 3 3 3 </DataArray>
</Cells>
<PointData  Scalars="U"> 
<DataArray  type="Float64"  Name="U"  format="ascii">0.0000000000000000e+00  1.8721819167301354e-01  3.6849294705227470e-01  5.4382426640188786e-01  7.1321214995949500e-01  8.7665659793789719e-01  1.0341576105267207e+00  1.1857151878941043e+00  1.3313293301883831e+00  1.4710000375397541e+00  1.6047273100619062e+00  1.7325111478535911e+00  1.8543515510001316e+00  1.9702485195748505e+00  2.0802020536404155e+00  2.1842121532500891e+00  2.2822788184488840e+00  2.3744020492746190e+00  2.4605818457588780e+00  2.5408182079278694e+00  2.6151111358031929e+00  2.6834606294025090e+00  2.7458666887401262e+00  2.8023293138275021e+00  2.8528485046736614e+00  2.8974242612855416e+00  2.9360565836682619e+00  2.9687454718253234e+00  2.9954909257587365e+00  3.0162929454690799e+00  3.0311515309554884e+00  3.0400666822155618e+00  3.0430383992451984e+00  3.0400666820383373e+00  3.0311515305866119e+00  3.0162929448788902e+00  2.9954909249007091e+00  2.9687454706335656e+00  2.9360565820540874e+00  2.8974242591330270e+00  2.8528485018340999e+00  2.8023293101126323e+00  2.7458666839140253e+00  2.6834606231720124e+00  2.6151111278067094e+00  2.5408181977224578e+00  2.4605818328054680e+00  2.3744020329212590e+00  2.2822787979119346e+00  2.1842121275932915e+00  2.0802020217518198e+00  1.9702484801416145e+00  1.8543515024812580e+00  1.7325110884507258e+00  1.6047272376883770e+00  1.4709999497881026e+00  1.3313292242967010e+00  1.1857150607115599e+00  1.0341574584787172e+00  8.7665641699138708e-01  7.1321193558900953e-01  5.4382401355690446e-01  3.6849265012657922e-01  1.8721784447674461e-01  -4.0426492895074014e-07  </DataArray> 
</PointData> 
</Piece>
</UnstructuredGrid>
</VTKFile>