<?xml version="1.0"?>
<VTKFile type="UnstructuredGrid"  version="0.1"  >
<UnstructuredGrid>
<Piece  NumberOfPoints="65" NumberOfCells="64">
<Points>
<DataArray  type="Float64"  NumberOfComponents="3"  format="ascii">0 0 0  0.0625 0 0  0.125 0 0  0.1875 0 0  0.25 0 0  0.3125 0 0  0.375 0 0  0.4375 0 0  0.5 0 0  0.5625 0 0  0.625 0 0  0.6875 0 0  0.75 0 0  0.8125 0 0  0.875 0 0  0.9375 0 0  1 0 0  1.0625 0 0  1.125 0 0  1.1875 0 0  1.25 0 0  1.3125 0 0  1.375 0 0  1.4375 0 0  1.5 0 0  1.5625 0 0  1.625 0 0  1.6875 0 0  1.75 0 0  1.8125 0 0  1.875 0 0  1.9375 0 0  2 0 0  2.0625 0 0  2.125 0 0  2.1875 0 0  2.25 0 0  2.3125 0 0  2.375 0 0  2.4375 0 0  2.5 0 0  2.5625 0 0  2.625 0 0  2.6875 0 0  2.75 0 0  2.8125 0 0  2.875 0 0  2.9375 0 0  3 0 0  3.0625 0 0  3.125 0 0  3.1875 0 0  3.25 0 0  3.3125 0 0  3.375 0 0  3.4375 0 0  3.5 0 0  3.5625 0 0  3.625 0 0  3.6875 0 0  3.75 0 0  3.8125 0 0  3.875 0 0  3.9375 0 0  4 0 0  </DataArray>
</Points>
<Cells>
<DataArray  type="UInt32"  Name="connectivity"  format="ascii">0 1  1 2  2 3  3 4  4 5  5 6  6 7  7 8  8 9  9 10  10 11  11 12  12 13  13 14  14 15  15 16  16 17  17 18  18 19  19 20  20 21  21 22  22 23  23 24  24 25  25 26  26 27  27 28  28 29  29 30  30 31  31 32  32 33  33 34  34 35  35 36  36 37  37 38  38 39  39 40  40 41  41 42  42 43  43 44  44 45  45 46  46 47  47 48  48 49  49 50  50 51  51 52  52 53  53 54  54 55  55 56  56 57  57 58  58 59  59 60  60 61  61 62  62 63  63 64  </DataArray>
<DataArray  type="UInt32"  Name="offsets"  format="ascii">2 4 6 8 10 12 14 16 18 20 22 24 26 28 30 32 34 36 38 40 42 44 46 48 50 52 54 56 58 60 62 64 66 68 70 72 74 76 78 80 82 84 86 88 90 92 94 96 98 100 102 104 106 108 110 112 114 116 118 120 122 124 126 128 </DataArray>
<DataArray  type="UInt8"  Name="types"  format="ascii">3 3 3 3 3 3 3 3 3 3 3 3 3 3 3 3 3 3 3 3 3 3 3 3 3 3 3 3 3 3 3 3 3 3 3 3 3 3 3 3 3 3 3 3 3 3 3 3 3 3 3 3 3 3 3 3 3 3 3 3 3 3 3 3 </DataArray>
</Cells>
<PointData  Scalars="U"> 
<DataArray  type="Float64"  Name="U"  format="ascii">0.0000000000000000e+00  -5.5723715441977056e-03  -1.1835983092860401e-02  -1.8711742779781833e-02  -2.6117081040237973e-02  -3.3967569546057522e-02  -4.2178473108373006e-02  -5.0666129965168664e-02  -5.9349167596570364e-02  -6.8149525932999402e-02  -7.6993265288427426e-02  -8.5811168246136049e-02  -9.4539145254286763e-02  -1.0311846659207896e-01  -1.1149583669651573e-01  -1.1962333795984065e-01  -1.2745827634874290e-01  -1.3496294634820921e-01  -1.4210434221902385e-01  -1.4885383910159189e-01  -1.5518685850941596e-01  -1.6108253762134961e-01  -1.6652341304870250e-01  -1.7149513019458040e-01  -1.7598618990451889e-01  -1.7998773379936789e-01  -1.8349337747064379e-01  -1.8649909842304388e-01  -1.8900317585450471e-01  -1.9100619133766480e-01  -1.9251109522966633e-01  -1.9352333505816854e-01  -1.9405105560498487e-01  -1.9410537440223924e-01  -1.9370072926674545e-01  -1.9285530652684665e-01  -1.9159155081549442e-01  -1.8993675191721171e-01  -1.8792371067208605e-01  -1.8559147657707364e-01  -1.8298614700932261e-01  -1.8016171236309447e-01  -1.7718092217178349e-01  -1.7411614980982407e-01  -1.7105020632389117e-01  -1.6807705049952093e-01  -1.6530235254410849e-01  -1.6284381650229157e-01  -1.6083117899618130e-01  -1.5940581276224994e-01  -1.5871981548566499e-01  -1.5893449693677547e-01  -1.6021815816745286e-01  -1.6274311107200981e-01  -1.6668190796451329e-01  -1.7220268537765396e-01  -1.7946376857492055e-01  -1.8860763809462991e-01  -1.9975437398132995e-01  -2.1299489917480094e-01  -2.2838431906895909e-01  -2.4593584083289169e-01  -2.6561560940371348e-01  -2.8733891108539406e-01  -3.1096821437664784e-01  </DataArray> 
</PointData> 
</Piece>
</UnstructuredGrid>
</VTKFile>