<?xml version="1.0"?>
<VTKFile type="UnstructuredGrid"  version="0.1"  >
<UnstructuredGrid>
<Piece  NumberOfPoints="65" NumberOfCells="64">
<Points>
<DataArray  type="Float64"  NumberOfComponents="3"  format="ascii">0 0 0  0.0625 0 0  0.125 0 0  0.1875 0 0  0.25 0 0  0.3125 0 0  0.375 0 0  0.4375 0 0  0.5 0 0  0.5625 0 0  0.625 0 0  0.6875 0 0  0.75 0 0  0.8125 0 0  0.875 0 0  0.9375 0 0  1 0 0  1.0625 0 0  1.125 0 0  1.1875 0 0  1.25 0 0  1.3125 0 0  1.375 0 0  1.4375 0 0  1.5 0 0  1.5625 0 0  1.625 0 0  1.6875 0 0  1.75 0 0  1.8125 0 0  1.875 0 0  1.9375 0 0  2 0 0  2.0625 0 0  2.125 0 0  2.1875 0 0  2.25 0 0  2.3125 0 0  2.375 0 0  2.4375 0 0  2.5 0 0  2.5625 0 0  2.625 0 0  2.6875 0 0  2.75 0 0  2.8125 0 0  2.875 0 0  2.9375 0 0  3 0 0  3.0625 0 0  3.125 0 0  3.1875 0 0  3.25 0 0  3.3125 0 0  3.375 0 0  3.4375 0 0  3.5 0 0  3.5625 0 0  3.625 0 0  3.6875 0 0  3.75 0 0  3.8125 0 0  3.875 0 0  3.9375 0 0  4 0 0  </DataArray>
</Points>
<Cells>
<DataArray  type="UInt32"  Name="connectivity"  format="ascii">0 1  1 2  2 3  3 4  4 5  5 6  6 7  7 8  8 9  9 10  10 11  11 12  12 13  13 14  14 15  15 16  16 17  17 18  18 19  19 20  20 21  21 22  22 23  23 24  24 25  25 26  26 27  27 28  28 29  29 30  30 31  31 32  32 33  33 34  34 35  35 36  36 37  37 38  38 39  39 40  40 41  41 42  42 43  43 44  44 45  45 46  46 47  47 48  48 49  49 50  50 51  51 52  52 53  53 54  54 55  55 56  56 57  57 58  58 59  59 60  60 61  61 62  62 63  63 64  </DataArray>
<DataArray  type="UInt32"  Name="offsets"  format="ascii">2 4 6 8 10 12 14 16 18 20 22 24 26 28 30 32 34 36 38 40 42 44 46 48 50 52 54 56 58 60 62 64 66 68 70 72 74 76 78 80 82 84 86 88 90 92 94 96 98 100 102 104 106 108 110 112 114 116 118 120 122 124 126 128 </DataArray>
<DataArray  type="UInt8"  Name="types"  format="ascii">3 3 3 3 3 3 3 3 3 3 3 3 3 3 3 3 3 3 3 3 3 3 3 3 3 3 3 3 3 3 3 3 3 3 3 3 3 3 3 3 3 3 3 3 3 3 3 3 3 3 3 3 3 3 3 3 3 3 3 3 3 3 3 3 </DataArray>
</Cells>
<PointData  Scalars="U"> 
<DataArray  type="Float64"  Name="U"  format="ascii">0.0000000000000000e+00  1.6076293091522420e-01  3.1642227445031373e-01  4.6697803091535112e-01  6.1243020059675013e-01  7.5277878375819551e-01  8.8802378064164311e-01  1.0181651914683663e+00  1.1432030164400375e+00  1.2631372557398306e+00  1.3779679095335347e+00  1.4876949779706643e+00  1.5923184611855616e+00  1.6918383592984729e+00  1.7862546724165989e+00  1.8755674006351020e+00  1.9597765440380714e+00  2.0388821026994339e+00  2.1128840766838026e+00  2.1817824660472707e+00  2.2455772708381261e+00  2.3042684910975004e+00  2.3578561268599421e+00  2.4063401781539024e+00  2.4497206450021465e+00  2.4879975274220762e+00  2.5211708254259610e+00  2.5492405390210831e+00  2.5722066682097822e+00  2.5900692129894094e+00  2.6028281733521741e+00  2.6104835492848921e+00  2.6130353407686342e+00  2.6104835477782511e+00  2.6028281702818075e+00  2.5900692082398864e+00  2.5722066616047976e+00  2.5492405303196581e+00  2.5211708143173714e+00  2.4879975135194909e+00  2.4497206278349819e+00  2.4063401571588745e+00  2.3578561013708348e+00  2.3042684603336419e+00  2.2455772338915976e+00  2.1817824218688791e+00  2.1128840240678484e+00  2.0388820402673433e+00  1.9597764702209677e+00  1.8755673136554032e+00  1.7862545702687813e+00  1.6918382397291287e+00  1.5923183216729244e+00  1.4876948157038030e+00  1.3779677213914274e+00  1.2631370382705722e+00  1.1432027658404462e+00  1.0181649035642837e+00  8.8802345086923595e-01  7.5277840714659305e-01  6.1242977175235502e-01  4.6697754400817576e-01  3.1642172320269918e-01  1.6076230859329416e-01  -7.0059179929635620e-07  </DataArray> 
</PointData> 
</Piece>
</UnstructuredGrid>
</VTKFile>