<?xml version="1.0"?>
<VTKFile type="UnstructuredGrid"  version="0.1"  >
<UnstructuredGrid>
<Piece  NumberOfPoints="65" NumberOfCells="64">
<Points>
<DataArray  type="Float64"  NumberOfComponents="3"  format="ascii">0 0 0  0.0625 0 0  0.125 0 0  0.1875 0 0  0.25 0 0  0.3125 0 0  0.375 0 0  0.4375 0 0  0.5 0 0  0.5625 0 0  0.625 0 0  0.6875 0 0  0.75 0 0  0.8125 0 0  0.875 0 0  0.9375 0 0  1 0 0  1.0625 0 0  1.125 0 0  1.1875 0 0  1.25 0 0  1.3125 0 0  1.375 0 0  1.4375 0 0  1.5 0 0  1.5625 0 0  1.625 0 0  1.6875 0 0  1.75 0 0  1.8125 0 0  1.875 0 0  1.9375 0 0  2 0 0  2.0625 0 0  2.125 0 0  2.1875 0 0  2.25 0 0  2.3125 0 0  2.375 0 0  2.4375 0 0  2.5 0 0  2.5625 0 0  2.625 0 0  2.6875 0 0  2.75 0 0  2.8125 0 0  2.875 0 0  2.9375 0 0  3 0 0  3.0625 0 0  3.125 0 0  3.1875 0 0  3.25 0 0  3.3125 0 0  3.375 0 0  3.4375 0 0  3.5 0 0  3.5625 0 0  3.625 0 0  3.6875 0 0  3.75 0 0  3.8125 0 0  3.875 0 0  3.9375 0 0  4 0 0  </DataArray>
</Points>
<Cells>
<DataArray  type="UInt32"  Name="connectivity"  format="ascii">0 1  1 2  2 3  3 4  4 5  5 6  6 7  7 8  8 9  9 10  10 11  11 12  12 13  13 14  14 15  15 16  16 17  17 18  18 19  19 20  20 21  21 22  22 23  23 24  24 25  25 26  26 27  27 28  28 29  29 30  30 31  31 32  32 33  33 34  34 35  35 36  36 37  37 38  38 39  39 40  40 41  41 42  42 43  43 44  44 45  45 46  46 47  47 48  48 49  49 50  50 51  51 52  52 53  53 54  54 55  55 56  56 57  57 58  58 59  59 60  60 61  61 62  62 63  63 64  </DataArray>
<DataArray  type="UInt32"  Name="offsets"  format="ascii">2 4 6 8 10 12 14 16 18 20 22 24 26 28 30 32 34 36 38 40 42 44 46 48 50 52 54 56 58 60 62 64 66 68 70 72 74 76 78 80 82 84 86 88 90 92 94 96 98 100 102 104 106 108 110 112 114 116 118 120 122 124 126 128 </DataArray>
<DataArray  type="UInt8"  Name="types"  format="ascii">3 3 3 3 3 3 3 3 3 3 3 3 3 3 3 3 3 3 3 3 3 3 3 3 3 3 3 3 3 3 3 3 3 3 3 3 3 3 3 3 3 3 3 3 3 3 3 3 3 3 3 3 3 3 3 3 3 3 3 3 3 3 3 3 </DataArray>
</Cells>
<PointData  Scalars="U"> 
<DataArray  type="Float64"  Name="U"  format="ascii">0.0000000000000000e+00  -5.7777499728887891e-02  -1.1642375632954310e-01  -1.7574921543215838e-01  -2.3556395518000242e-01  -2.9567872793794509e-01  -3.5590598517558297e-01  -4.1606087425403199e-01  -4.7596219766353359e-01  -5.3543332713574077e-01  -5.9430306688387669e-01  -6.5240646193397012e-01  -7.0958554905507054e-01  -7.6569004914926353e-01  -8.2057800111133161e-01  -8.7411633811136003e-01  -9.2618140799699500e-01  -9.7665944006588723e-01  -1.0254469608365024e+00  -1.0724511616621133e+00  -1.1175902211041642e+00  -1.1607935849230595e+00  -1.2020022063720062e+00  -1.2411687492071983e+00  -1.2782577554688204e+00  -1.3132457796543953e+00  -1.3461214904103704e+00  -1.3768857403199566e+00  -1.4055516037749483e+00  -1.4321443822957489e+00  -1.4567015760160680e+00  -1.4792728193856204e+00  -1.4999197784747351e+00  -1.5187160065986907e+00  -1.5357467543272663e+00  -1.5511087293179759e+00  -1.5649098008227333e+00  -1.5772686431820486e+00  -1.5883143121551293e+00  -1.5981857475576471e+00  -1.6070311954133820e+00  -1.6150075426962187e+00  -1.6222795577729590e+00  -1.6290190298862339e+00  -1.6354038014747148e+00  -1.6416166878521659e+00  -1.6478442797976449e+00  -1.6542756259883751e+00  -1.6611007939775611e+00  -1.6685093106244442e+00  -1.6766884855635011e+00  -1.6858216244891528e+00  -1.6960861427580780e+00  -1.7076515940861732e+00  -1.7206776339343894e+00  -1.7353119425024228e+00  -1.7516881380086733e+00  -1.7699237170053186e+00  -1.7901180646676600e+00  -1.8123505840285510e+00  -1.8366789986101624e+00  -1.8631378873008224e+00  -1.8917375129154341e+00  -1.9224630057146495e+00  -1.9552739590020891e+00  </DataArray> 
</PointData> 
</Piece>
</UnstructuredGrid>
</VTKFile>