<?xml version="1.0"?>
<VTKFile type="UnstructuredGrid"  version="0.1"  >
<UnstructuredGrid>
<Piece  NumberOfPoints="65" NumberOfCells="64">
<Points>
<DataArray  type="Float64"  NumberOfComponents="3"  format="ascii">0 0 0  0.0625 0 0  0.125 0 0  0.1875 0 0  0.25 0 0  0.3125 0 0  0.375 0 0  0.4375 0 0  0.5 0 0  0.5625 0 0  0.625 0 0  0.6875 0 0  0.75 0 0  0.8125 0 0  0.875 0 0  0.9375 0 0  1 0 0  1.0625 0 0  1.125 0 0  1.1875 0 0  1.25 0 0  1.3125 0 0  1.375 0 0  1.4375 0 0  1.5 0 0  1.5625 0 0  1.625 0 0  1.6875 0 0  1.75 0 0  1.8125 0 0  1.875 0 0  1.9375 0 0  2 0 0  2.0625 0 0  2.125 0 0  2.1875 0 0  2.25 0 0  2.3125 0 0  2.375 0 0  2.4375 0 0  2.5 0 0  2.5625 0 0  2.625 0 0  2.6875 0 0  2.75 0 0  2.8125 0 0  2.875 0 0  2.9375 0 0  3 0 0  3.0625 0 0  3.125 0 0  3.1875 0 0  3.25 0 0  3.3125 0 0  3.375 0 0  3.4375 0 0  3.5 0 0  3.5625 0 0  3.625 0 0  3.6875 0 0  3.75 0 0  3.8125 0 0  3.875 0 0  3.9375 0 0  4 0 0  </DataArray>
</Points>
<Cells>
<DataArray  type="UInt32"  Name="connectivity"  format="ascii">0 1  1 2  2 3  3 4  4 5  5 6  6 7  7 8  8 9  9 10  10 11  11 12  12 13  13 14  14 15  15 16  16 17  17 18  18 19  19 20  20 21  21 22  22 23  23 24  24 25  25 26  26 27  27 28  28 29  29 30  30 31  31 32  32 33  33 34  34 35  35 36  36 37  37 38  38 39  39 40  40 41  41 42  42 43  43 44  44 45  45 46  46 47  47 48  48 49  49 50  50 51  51 52  52 53  53 54  54 55  55 56  56 57  57 58  58 59  59 60  60 61  61 62  62 63  63 64  </DataArray>
<DataArray  type="UInt32"  Name="offsets"  format="ascii">2 4 6 8 10 12 14 16 18 20 22 24 26 28 30 32 34 36 38 40 42 44 46 48 50 52 54 56 58 60 62 64 66 68 70 72 74 76 78 80 82 84 86 88 90 92 94 96 98 100 102 104 106 108 110 112 114 116 118 120 122 124 126 128 </DataArray>
<DataArray  type="UInt8"  Name="types"  format="ascii">3 3 3 3 3 3 3 3 3 3 3 3 3 3 3 3 3 3 3 3 3 3 3 3 3 3 3 3 3 3 3 3 3 3 3 3 3 3 3 3 3 3 3 3 3 3 3 3 3 3 3 3 3 3 3 3 3 3 3 3 3 3 3 3 </DataArray>
</Cells>
<PointData  Scalars="U"> 
<DataArray  type="Float64"  Name="U"  format="ascii">0.0000000000000000e+00  -4.6576267197582857e-03  -1.0095405389262247e-02  -1.6220952004997850e-02  -2.2938645072833178e-02  -3.0151735591457503e-02  -3.7764298206054703e-02  -4.5682906292088224e-02  -5.3818030199134032e-02  -6.2085136668753538e-02  -7.0405480437399831e-02  -7.8706613409614851e-02  -8.6922641177341456e-02  -9.4994268757531850e-02  -1.0286866848199754e-01  -1.1049921242458101e-01  -1.1784511266213706e-01  -1.2487099508183144e-01  -1.3154643949312950e-01  -1.3784551138451287e-01  -1.4374630074166028e-01  -1.4923048680020373e-01  -1.5428293637015486e-01  -1.5889134459214291e-01  -1.6304592712339452e-01  -1.6673916106304218e-01  -1.6996558146773294e-01  -1.7272163800525400e-01  -1.7500560572727000e-01  -1.7681755814449418e-01  -1.7815940663758850e-01  -1.7903500123486449e-01  -1.7945030389445110e-01  -1.7941363951275935e-01  -1.7893602268236836e-01  -1.7803157345234985e-01  -1.7671802761831562e-01  -1.7501734191016630e-01  -1.7295640465564804e-01  -1.7056785288861281e-01  -1.6789099450495720e-01  -1.6497283155787401e-01  -1.6186917016084046e-01  -1.5864580452267590e-01  -1.5537973527673468e-01  -1.5216037450941616e-01  -1.4909069679364803e-01  -1.4628823491042420e-01  -1.4388582210317338e-01  -1.4203198489528104e-01  -1.4089082292103433e-01  -1.4064123122201175e-01  -1.4147528895062403e-01  -1.4359566891588010e-01  -1.4721193717379635e-01  -1.5253554513877424e-01  -1.5977355854092420e-01  -1.6912114938564349e-01  -1.8075292911461466e-01  -1.9481347143422811e-01  -2.1140742664265516e-01  -2.3058989766035870e-01  -2.5235770563202925e-01  -2.7664234696250228e-01  -3.0330548833460813e-01  </DataArray> 
</PointData> 
</Piece>
</UnstructuredGrid>
</VTKFile>