<?xml version="1.0"?>
<VTKFile type="UnstructuredGrid"  version="0.1"  >
<UnstructuredGrid>
<Piece  NumberOfPoints="65" NumberOfCells="64">
<Points>
<DataArray  type="Float64"  NumberOfComponents="3"  format="ascii">0 0 0  0.0625 0 0  0.125 0 0  0.1875 0 0  0.25 0 0  0.3125 0 0  0.375 0 0  0.4375 0 0  0.5 0 0  0.5625 0 0  0.625 0 0  0.6875 0 0  0.75 0 0  0.8125 0 0  0.875 0 0  0.9375 0 0  1 0 0  1.0625 0 0  1.125 0 0  1.1875 0 0  1.25 0 0  1.3125 0 0  1.375 0 0  1.4375 0 0  1.5 0 0  1.5625 0 0  1.625 0 0  1.6875 0 0  1.75 0 0  1.8125 0 0  1.875 0 0  1.9375 0 0  2 0 0  2.0625 0 0  2.125 0 0  2.1875 0 0  2.25 0 0  2.3125 0 0  2.375 0 0  2.4375 0 0  2.5 0 0  2.5625 0 0  2.625 0 0  2.6875 0 0  2.75 0 0  2.8125 0 0  2.875 0 0  2.9375 0 0  3 0 0  3.0625 0 0  3.125 0 0  3.1875 0 0  3.25 0 0  3.3125 0 0  3.375 0 0  3.4375 0 0  3.5 0 0  3.5625 0 0  3.625 0 0  3.6875 0 0  3.75 0 0  3.8125 0 0  3.875 0 0  3.9375 0 0  4 0 0  </DataArray>
</Points>
<Cells>
<DataArray  type="UInt32"  Name="connectivity"  format="ascii">0 1  1 2  2 3  3 4  4 5  5 6  6 7  7 8  8 9  9 10  10 11  11 12  12 13  13 14  14 15  15 16  16 17  17 18  18 19  19 20  20 21  21 22  22 23  23 24  24 25  25 26  26 27  27 28  28 29  29 30  30 31  31 32  32 33  33 34  34 35  35 36  36 37  37 38  38 39  39 40  40 41  41 42  42 43  43 44  44 45  45 46  46 47  47 48  48 49  49 50  50 51  51 52  52 53  53 54  54 55  55 56  56 57  57 58  58 59  59 60  60 61  61 62  62 63  63 64  </DataArray>
<DataArray  type="UInt32"  Name="offsets"  format="ascii">2 4 6 8 10 12 14 16 18 20 22 24 26 28 30 32 34 36 38 40 42 44 46 48 50 52 54 56 58 60 62 64 66 68 70 72 74 76 78 80 82 84 86 88 90 92 94 96 98 100 102 104 106 108 110 112 114 116 118 120 122 124 126 128 </DataArray>
<DataArray  type="UInt8"  Name="types"  format="ascii">3 3 3 3 3 3 3 3 3 3 3 3 3 3 3 3 3 3 3 3 3 3 3 3 3 3 3 3 3 3 3 3 3 3 3 3 3 3 3 3 3 3 3 3 3 3 3 3 3 3 3 3 3 3 3 3 3 3 3 3 3 3 3 3 </DataArray>
</Cells>
<PointData  Scalars="U"> 
<DataArray  type="Float64"  Name="U"  format="ascii">0.0000000000000000e+00  6.3214209392482195e-04  4.3368307581596005e-05  -1.4371852899969322e-03  -3.5541543033935628e-03  -6.1112594010841919e-03  -8.9588108490215590e-03  -1.1983397862019522e-02  -1.5099577374010397e-02  -1.8243289504588065e-02  -2.1366711857565533e-02  -2.4434276733417339e-02  -2.7419617431023686e-02  -3.0303247935400849e-02  -3.3070805060290379e-02  -3.5711727192938615e-02  -3.8218266063505431e-02  -4.0584747911407038e-02  -4.2807027160409107e-02  -4.4882080193958715e-02  -4.6807704703546830e-02  -4.8582301840776304e-02  -5.0204712999508121e-02  -5.1674100575338444e-02  -5.2989864792302888e-02  -5.4151579507343672e-02  -5.5158947000268008e-02  -5.6011769751659848e-02  -5.6709927384229350e-02  -5.7253363521567499e-02  -5.7642082810488417e-02  -5.7876149090347676e-02  -5.7955692236631808e-02  -5.7880925089094551e-02  -5.7652163719002690e-02  -5.7269861571907367e-02  -5.6734660775486646e-02  -5.6047457612604996e-02  -5.5209497934308419e-02  -5.4222510813531716e-02  -5.3088886778273357e-02  -5.1811926864035872e-02  -5.0396184163428413e-02  -4.8847928335077118e-02  -4.7175781710733687e-02  -4.5391582822613283e-02  -4.3511564512057246e-02  -4.1557947599152593e-02  -3.9561088291417981e-02  -3.7562384348800479e-02  -3.5618168514678382e-02  -3.3804908992915661e-02  -3.2226140735485548e-02  -3.1021640356651840e-02  -3.0379506206618296e-02  -3.0551932852519361e-02  -3.1875665068295249e-02  -3.4798244139353882e-02  -3.9911233456132497e-02  -4.7991635395235197e-02  -6.0052426595563868e-02  -7.7402453983070066e-02  -1.0171447151575061e-01  -1.3509735953467442e-01  -1.8016371611904858e-01  </DataArray> 
</PointData> 
</Piece>
</UnstructuredGrid>
</VTKFile>