<?xml version="1.0"?>
<VTKFile type="UnstructuredGrid"  version="0.1"  >
<UnstructuredGrid>
<Piece  NumberOfPoints="65" NumberOfCells="64">
<Points>
<DataArray  type="Float64"  NumberOfComponents="3"  format="ascii">0 0 0  0.0625 0 0  0.125 0 0  0.1875 0 0  0.25 0 0  0.3125 0 0  0.375 0 0  0.4375 0 0  0.5 0 0  0.5625 0 0  0.625 0 0  0.6875 0 0  0.75 0 0  0.8125 0 0  0.875 0 0  0.9375 0 0  1 0 0  1.0625 0 0  1.125 0 0  1.1875 0 0  1.25 0 0  1.3125 0 0  1.375 0 0  1.4375 0 0  1.5 0 0  1.5625 0 0  1.625 0 0  1.6875 0 0  1.75 0 0  1.8125 0 0  1.875 0 0  1.9375 0 0  2 0 0  2.0625 0 0  2.125 0 0  2.1875 0 0  2.25 0 0  2.3125 0 0  2.375 0 0  2.4375 0 0  2.5 0 0  2.5625 0 0  2.625 0 0  2.6875 0 0  2.75 0 0  2.8125 0 0  2.875 0 0  2.9375 0 0  3 0 0  3.0625 0 0  3.125 0 0  3.1875 0 0  3.25 0 0  3.3125 0 0  3.375 0 0  3.4375 0 0  3.5 0 0  3.5625 0 0  3.625 0 0  3.6875 0 0  3.75 0 0  3.8125 0 0  3.875 0 0  3.9375 0 0  4 0 0  </DataArray>
</Points>
<Cells>
<DataArray  type="UInt32"  Name="connectivity"  format="ascii">0 1  1 2  2 3  3 4  4 5  5 6  6 7  7 8  8 9  9 10  10 11  11 12  12 13  13 14  14 15  15 16  16 17  17 18  18 19  19 20  20 21  21 22  22 23  23 24  24 25  25 26  26 27  27 28  28 29  29 30  30 31  31 32  32 33  33 34  34 35  35 36  36 37  37 38  38 39  39 40  40 41  41 42  42 43  43 44  44 45  45 46  46 47  47 48  48 49  49 50  50 51  51 52  52 53  53 54  54 55  55 56  56 57  57 58  58 59  59 60  60 61  61 62  62 63  63 64  </DataArray>
<DataArray  type="UInt32"  Name="offsets"  format="ascii">2 4 6 8 10 12 14 16 18 20 22 24 26 28 30 32 34 36 38 40 42 44 46 48 50 52 54 56 58 60 62 64 66 68 70 72 74 76 78 80 82 84 86 88 90 92 94 96 98 100 102 104 106 108 110 112 114 116 118 120 122 124 126 128 </DataArray>
<DataArray  type="UInt8"  Name="types"  format="ascii">3 3 3 3 3 3 3 3 3 3 3 3 3 3 3 3 3 3 3 3 3 3 3 3 3 3 3 3 3 3 3 3 3 3 3 3 3 3 3 3 3 3 3 3 3 3 3 3 3 3 3 3 3 3 3 3 3 3 3 3 3 3 3 3 </DataArray>
</Cells>
<PointData  Scalars="U"> 
<DataArray  type="Float64"  Name="U"  format="ascii">0.0000000000000000e+00  2.2494787381875109e-01  4.4275454470241382e-01  6.5342001280093176e-01  8.5694427823645258e-01  1.0533273411070798e+00  1.2425692014904608e+00  1.4246698594471281e+00  1.5996293150235452e+00  1.7674475682548032e+00  1.9281246191669787e+00  2.0816604677791206e+00  2.2280551141049059e+00  2.3673085581539866e+00  2.4994207999330458e+00  2.6243918394466346e+00  2.7422216766977887e+00  2.8529103116884973e+00  2.9564577444200388e+00  3.0528639748932180e+00  3.1421290031085332e+00  3.2242528290662844e+00  3.2992354527666516e+00  3.3670768742097361e+00  3.4277770933955996e+00  3.4813361103242739e+00  3.5277539249957761e+00  3.5670305374101186e+00  3.5991659475673043e+00  3.6241601554673357e+00  3.6420131611102140e+00  3.6527249644959401e+00  3.6562955656245135e+00  3.6527249644959325e+00  3.6420131611101936e+00  3.6241601554672909e+00  3.5991659475672080e+00  3.5670305374099192e+00  3.5277539249953693e+00  3.4813361103234541e+00  3.4277770933939866e+00  3.3670768742066186e+00  3.2992354527607382e+00  3.2242528290552852e+00  3.1421290030884594e+00  3.0528639748572739e+00  2.9564577443568756e+00  2.8529103115795538e+00  2.7422216765133136e+00  2.6243918391398875e+00  2.4994207994320319e+00  2.3673085573499515e+00  2.2280551128366977e+00  2.0816604658124001e+00  1.9281246161672567e+00  1.7674475637532492e+00  1.5996293083746618e+00  1.4246698497775809e+00  1.2425691876386917e+00  1.0533273215537677e+00  8.5694425102644067e-01  6.5341997545778951e-01  4.4275449413750706e-01  2.2494780623713709e-01  -8.9193845566632462e-08  </DataArray> 
</PointData> 
</Piece>
</UnstructuredGrid>
</VTKFile>