<?xml version="1.0"?>
<VTKFile type="UnstructuredGrid"  version="0.1"  >
<UnstructuredGrid>
<Piece  NumberOfPoints="65" NumberOfCells="64">
<Points>
<DataArray  type="Float64"  NumberOfComponents="3"  format="ascii">0 0 0  0.0625 0 0  0.125 0 0  0.1875 0 0  0.25 0 0  0.3125 0 0  0.375 0 0  0.4375 0 0  0.5 0 0  0.5625 0 0  0.625 0 0  0.6875 0 0  0.75 0 0  0.8125 0 0  0.875 0 0  0.9375 0 0  1 0 0  1.0625 0 0  1.125 0 0  1.1875 0 0  1.25 0 0  1.3125 0 0  1.375 0 0  1.4375 0 0  1.5 0 0  1.5625 0 0  1.625 0 0  1.6875 0 0  1.75 0 0  1.8125 0 0  1.875 0 0  1.9375 0 0  2 0 0  2.0625 0 0  2.125 0 0  2.1875 0 0  2.25 0 0  2.3125 0 0  2.375 0 0  2.4375 0 0  2.5 0 0  2.5625 0 0  2.625 0 0  2.6875 0 0  2.75 0 0  2.8125 0 0  2.875 0 0  2.9375 0 0  3 0 0  3.0625 0 0  3.125 0 0  3.1875 0 0  3.25 0 0  3.3125 0 0  3.375 0 0  3.4375 0 0  3.5 0 0  3.5625 0 0  3.625 0 0  3.6875 0 0  3.75 0 0  3.8125 0 0  3.875 0 0  3.9375 0 0  4 0 0  </DataArray>
</Points>
<Cells>
<DataArray  type="UInt32"  Name="connectivity"  format="ascii">0 1  1 2  2 3  3 4  4 5  5 6  6 7  7 8  8 9  9 10  10 11  11 12  12 13  13 14  14 15  15 16  16 17  17 18  18 19  19 20  20 21  21 22  22 23  23 24  24 25  25 26  26 27  27 28  28 29  29 30  30 31  31 32  32 33  33 34  34 35  35 36  36 37  37 38  38 39  39 40  40 41  41 42  42 43  43 44  44 45  45 46  46 47  47 48  48 49  49 50  50 51  51 52  52 53  53 54  54 55  55 56  56 57  57 58  58 59  59 60  60 61  61 62  62 63  63 64  </DataArray>
<DataArray  type="UInt32"  Name="offsets"  format="ascii">2 4 6 8 10 12 14 16 18 20 22 24 26 28 30 32 34 36 38 40 42 44 46 48 50 52 54 56 58 60 62 64 66 68 70 72 74 76 78 80 82 84 86 88 90 92 94 96 98 100 102 104 106 108 110 112 114 116 118 120 122 124 126 128 </DataArray>
<DataArray  type="UInt8"  Name="types"  format="ascii">3 3 3 3 3 3 3 3 3 3 3 3 3 3 3 3 3 3 3 3 3 3 3 3 3 3 3 3 3 3 3 3 3 3 3 3 3 3 3 3 3 3 3 3 3 3 3 3 3 3 3 3 3 3 3 3 3 3 3 3 3 3 3 3 </DataArray>
</Cells>
<PointData  Scalars="U"> 
<DataArray  type="Float64"  Name="U"  format="ascii">0.0000000000000000e+00  1.6013617486304427e-01  3.1518865934960716e-01  4.6515745377063394e-01  6.1004255841347388e-01  7.4984397354280752e-01  8.8456169940163287e-01  1.0141957362123009e+00  1.1387460841775827e+00  1.2582127434817607e+00  1.3725957142917331e+00  1.4818949967581112e+00  1.5861105910163122e+00  1.6852424971876288e+00  1.7792907153802675e+00  1.8682552456903530e+00  1.9521360882028831e+00  2.0309332429926332e+00  2.1046467101250061e+00  2.1732764896568106e+00  2.2368225816369804e+00  2.2952849861072191e+00  2.3486637031025626e+00  2.3969587326518704e+00  2.4401700747782287e+00  2.4782977294992712e+00  2.5113416968274098e+00  2.5393019767699725e+00  2.5621785693292494e+00  2.5799714745024400e+00  2.5926806922815002e+00  2.6003062226528910e+00  2.6028480655972133e+00  2.6003062210887449e+00  2.5926806890948599e+00  2.5799714695753453e+00  2.5621785624815940e+00  2.5393019677557027e+00  2.5113416853294392e+00  2.4782977151231202e+00  2.4401700570443694e+00  2.3969587109867874e+00  2.3486636768285236e+00  2.2952849544307705e+00  2.2368225436361886e+00  2.1732764442672714e+00  2.1046466561246788e+00  2.0309331789855465e+00  1.9521360126018006e+00  1.8682551566985024e+00  1.7792906109722393e+00  1.6852423750896068e+00  1.5861104486857960e+00  1.4818948313633269e+00  1.3725955226909552e+00  1.2582125222027882e+00  1.1387458293976365e+00  1.0141954437386351e+00  8.8456136465316426e-01  7.4984359153309277e-01  6.1004212373537003e-01  4.6515696058298966e-01  3.1518810136633368e-01  1.6013554534491711e-01  -7.0825046465717257e-07  </DataArray> 
</PointData> 
</Piece>
</UnstructuredGrid>
</VTKFile>