<?xml version="1.0"?>
<VTKFile type="UnstructuredGrid"  version="0.1"  >
<UnstructuredGrid>
<Piece  NumberOfPoints="65" NumberOfCells="64">
<Points>
<DataArray  type="Float64"  NumberOfComponents="3"  format="ascii">0 0 0  0.0625 0 0  0.125 0 0  0.1875 0 0  0.25 0 0  0.3125 0 0  0.375 0 0  0.4375 0 0  0.5 0 0  0.5625 0 0  0.625 0 0  0.6875 0 0  0.75 0 0  0.8125 0 0  0.875 0 0  0.9375 0 0  1 0 0  1.0625 0 0  1.125 0 0  1.1875 0 0  1.25 0 0  1.3125 0 0  1.375 0 0  1.4375 0 0  1.5 0 0  1.5625 0 0  1.625 0 0  1.6875 0 0  1.75 0 0  1.8125 0 0  1.875 0 0  1.9375 0 0  2 0 0  2.0625 0 0  2.125 0 0  2.1875 0 0  2.25 0 0  2.3125 0 0  2.375 0 0  2.4375 0 0  2.5 0 0  2.5625 0 0  2.625 0 0  2.6875 0 0  2.75 0 0  2.8125 0 0  2.875 0 0  2.9375 0 0  3 0 0  3.0625 0 0  3.125 0 0  3.1875 0 0  3.25 0 0  3.3125 0 0  3.375 0 0  3.4375 0 0  3.5 0 0  3.5625 0 0  3.625 0 0  3.6875 0 0  3.75 0 0  3.8125 0 0  3.875 0 0  3.9375 0 0  4 0 0  </DataArray>
</Points>
<Cells>
<DataArray  type="UInt32"  Name="connectivity"  format="ascii">0 1  1 2  2 3  3 4  4 5  5 6  6 7  7 8  8 9  9 10  10 11  11 12  12 13  13 14  14 15  15 16  16 17  17 18  18 19  19 20  20 21  21 22  22 23  23 24  24 25  25 26  26 27  27 28  28 29  29 30  30 31  31 32  32 33  33 34  34 35  35 36  36 37  37 38  38 39  39 40  40 41  41 42  42 43  43 44  44 45  45 46  46 47  47 48  48 49  49 50  50 51  51 52  52 53  53 54  54 55  55 56  56 57  57 58  58 59  59 60  60 61  61 62  62 63  63 64  </DataArray>
<DataArray  type="UInt32"  Name="offsets"  format="ascii">2 4 6 8 10 12 14 16 18 20 22 24 26 28 30 32 34 36 38 40 42 44 46 48 50 52 54 56 58 60 62 64 66 68 70 72 74 76 78 80 82 84 86 88 90 92 94 96 98 100 102 104 106 108 110 112 114 116 118 120 122 124 126 128 </DataArray>
<DataArray  type="UInt8"  Name="types"  format="ascii">3 3 3 3 3 3 3 3 3 3 3 3 3 3 3 3 3 3 3 3 3 3 3 3 3 3 3 3 3 3 3 3 3 3 3 3 3 3 3 3 3 3 3 3 3 3 3 3 3 3 3 3 3 3 3 3 3 3 3 3 3 3 3 3 </DataArray>
</Cells>
<PointData  Scalars="U"> 
<DataArray  type="Float64"  Name="U"  format="ascii">0.0000000000000000e+00  1.5888998370947430e-01  3.1273583863896831e-01  4.6153756510111393e-01  6.0529516338509315e-01  7.4400863375753878e-01  8.7767797646349643e-01  1.0063031917274343e+00  1.1298842797542858e+00  1.2484212407305193e+00  1.3619140748252172e+00  1.4703627821911562e+00  1.5737673629658770e+00  1.6721278172727392e+00  1.7654441452219405e+00  1.8537163469115072e+00  1.9369444224282377e+00  2.0151283718485922e+00  2.0882681952395314e+00  2.1563638926592890e+00  2.2194154641580797e+00  2.2774229097787342e+00  2.3303862295572584e+00  2.3783054235233179e+00  2.4211804917006314e+00  2.4590114341072908e+00  2.4917982507559806e+00  2.5195409416541148e+00  2.5422395068038726e+00  2.5598939462021462e+00  2.5725042598403789e+00  2.5800704477043057e+00  2.5825925097735900e+00  2.5800704460213546e+00  2.5725042564135938e+00  2.5598939409084962e+00  2.5422394994556341e+00  2.5195409319950630e+00  2.4917982384562953e+00  2.4590114187571865e+00  2.4211804728027042e+00  2.3783054004836148e+00  2.3303862016750738e+00  2.2774228762351449e+00  2.2194154240032540e+00  2.1563638447985864e+00  2.0882681384184618e+00  2.0151283046366850e+00  1.9369443432019107e+00  1.8537162538360372e+00  1.7654440362326571e+00  1.6721276900555972e+00  1.5737672149375657e+00  1.4703626104789518e+00  1.3619138762467908e+00  1.2484210117739460e+00  1.1298840165585191e+00  1.0063028900635285e+00  8.7767763171688162e-01  7.4400824091166584e-01  6.0529471700678061e-01  4.6153705932793193e-01  3.1273526716899941e-01  1.5888933979379558e-01  -7.2356178559586430e-07  </DataArray> 
</PointData> 
</Piece>
</UnstructuredGrid>
</VTKFile>