<?xml version="1.0"?>
<VTKFile type="UnstructuredGrid"  version="0.1"  >
<UnstructuredGrid>
<Piece  NumberOfPoints="65" NumberOfCells="64">
<Points>
<DataArray  type="Float64"  NumberOfComponents="3"  format="ascii">0 0 0  0.0625 0 0  0.125 0 0  0.1875 0 0  0.25 0 0  0.3125 0 0  0.375 0 0  0.4375 0 0  0.5 0 0  0.5625 0 0  0.625 0 0  0.6875 0 0  0.75 0 0  0.8125 0 0  0.875 0 0  0.9375 0 0  1 0 0  1.0625 0 0  1.125 0 0  1.1875 0 0  1.25 0 0  1.3125 0 0  1.375 0 0  1.4375 0 0  1.5 0 0  1.5625 0 0  1.625 0 0  1.6875 0 0  1.75 0 0  1.8125 0 0  1.875 0 0  1.9375 0 0  2 0 0  2.0625 0 0  2.125 0 0  2.1875 0 0  2.25 0 0  2.3125 0 0  2.375 0 0  2.4375 0 0  2.5 0 0  2.5625 0 0  2.625 0 0  2.6875 0 0  2.75 0 0  2.8125 0 0  2.875 0 0  2.9375 0 0  3 0 0  3.0625 0 0  3.125 0 0  3.1875 0 0  3.25 0 0  3.3125 0 0  3.375 0 0  3.4375 0 0  3.5 0 0  3.5625 0 0  3.625 0 0  3.6875 0 0  3.75 0 0  3.8125 0 0  3.875 0 0  3.9375 0 0  4 0 0  </DataArray>
</Points>
<Cells>
<DataArray  type="UInt32"  Name="connectivity"  format="ascii">0 1  1 2  2 3  3 4  4 5  5 6  6 7  7 8  8 9  9 10  10 11  11 12  12 13  13 14  14 15  15 16  16 17  17 18  18 19  19 20  20 21  21 22  22 23  23 24  24 25  25 26  26 27  27 28  28 29  29 30  30 31  31 32  32 33  33 34  34 35  35 36  36 37  37 38  38 39  39 40  40 41  41 42  42 43  43 44  44 45  45 46  46 47  47 48  48 49  49 50  50 51  51 52  52 53  53 54  54 55  55 56  56 57  57 58  58 59  59 60  60 61  61 62  62 63  63 64  </DataArray>
<DataArray  type="UInt32"  Name="offsets"  format="ascii">2 4 6 8 10 12 14 16 18 20 22 24 26 28 30 32 34 36 38 40 42 44 46 48 50 52 54 56 58 60 62 64 66 68 70 72 74 76 78 80 82 84 86 88 90 92 94 96 98 100 102 104 106 108 110 112 114 116 118 120 122 124 126 128 </DataArray>
<DataArray  type="UInt8"  Name="types"  format="ascii">3 3 3 3 3 3 3 3 3 3 3 3 3 3 3 3 3 3 3 3 3 3 3 3 3 3 3 3 3 3 3 3 3 3 3 3 3 3 3 3 3 3 3 3 3 3 3 3 3 3 3 3 3 3 3 3 3 3 3 3 3 3 3 3 </DataArray>
</Cells>
<PointData  Scalars="U"> 
<DataArray  type="Float64"  Name="U"  format="ascii">0.0000000000000000e+00  2.2671216393845425e-01  4.4622711578373547e-01  6.5854485567787469e-01  8.6366538373528623e-01  1.0615887000467159e+00  1.2523148046829888e+00  1.4358436976984681e+00  1.6121753791341729e+00  1.7813098490205075e+00  1.9432471073796047e+00  2.0979871542272779e+00  2.2455299895746084e+00  2.3858756134292149e+00  2.5190240257962278e+00  2.6449752266790370e+00  2.7637292160798301e+00  2.8752859939999964e+00  2.9796455604403929e+00  3.0768079154015417e+00  3.1667730588837504e+00  3.2495409908871991e+00  3.3251117114119890e+00  3.3934852204581754e+00  3.4546615180257909e+00  3.5086406041148503e+00  3.5554224787253625e+00  3.5950071418573306e+00  3.6273945935107585e+00  3.6525848336856468e+00  3.6705778623819945e+00  3.6813736795998029e+00  3.6849722853390721e+00  3.6813736795998002e+00  3.6705778623819887e+00  3.6525848336856326e+00  3.6273945935107266e+00  3.5950071418572622e+00  3.5554224787252142e+00  3.5086406041145364e+00  3.4546615180251385e+00  3.3934852204568458e+00  3.3251117114093347e+00  3.2495409908820103e+00  3.1667730588738165e+00  3.0768079153829131e+00  2.9796455604061767e+00  2.8752859939384297e+00  2.7637292159712854e+00  2.6449752264914816e+00  2.5190240254785241e+00  2.3858756129014647e+00  2.2455299887146176e+00  2.0979871528520322e+00  1.9432471052205871e+00  1.7813098456916181e+00  1.6121753740911087e+00  1.4358436901885898e+00  1.2523147936850529e+00  1.0615886842003031e+00  8.6366536126039850e-01  6.5854482428578109e-01  4.4622707258104838e-01  2.2671210532685704e-01  -7.8424951012833644e-08  </DataArray> 
</PointData> 
</Piece>
</UnstructuredGrid>
</VTKFile>