<?xml version="1.0"?>
<VTKFile type="UnstructuredGrid"  version="0.1"  >
<UnstructuredGrid>
<Piece  NumberOfPoints="65" NumberOfCells="64">
<Points>
<DataArray  type="Float64"  NumberOfComponents="3"  format="ascii">0 0 0  0.0625 0 0  0.125 0 0  0.1875 0 0  0.25 0 0  0.3125 0 0  0.375 0 0  0.4375 0 0  0.5 0 0  0.5625 0 0  0.625 0 0  0.6875 0 0  0.75 0 0  0.8125 0 0  0.875 0 0  0.9375 0 0  1 0 0  1.0625 0 0  1.125 0 0  1.1875 0 0  1.25 0 0  1.3125 0 0  1.375 0 0  1.4375 0 0  1.5 0 0  1.5625 0 0  1.625 0 0  1.6875 0 0  1.75 0 0  1.8125 0 0  1.875 0 0  1.9375 0 0  2 0 0  2.0625 0 0  2.125 0 0  2.1875 0 0  2.25 0 0  2.3125 0 0  2.375 0 0  2.4375 0 0  2.5 0 0  2.5625 0 0  2.625 0 0  2.6875 0 0  2.75 0 0  2.8125 0 0  2.875 0 0  2.9375 0 0  3 0 0  3.0625 0 0  3.125 0 0  3.1875 0 0  3.25 0 0  3.3125 0 0  3.375 0 0  3.4375 0 0  3.5 0 0  3.5625 0 0  3.625 0 0  3.6875 0 0  3.75 0 0  3.8125 0 0  3.875 0 0  3.9375 0 0  4 0 0  </DataArray>
</Points>
<Cells>
<DataArray  type="UInt32"  Name="connectivity"  format="ascii">0 1  1 2  2 3  3 4  4 5  5 6  6 7  7 8  8 9  9 10  10 11  11 12  12 13  13 14  14 15  15 16  16 17  17 18  18 19  19 20  20 21  21 22  22 23  23 24  24 25  25 26  26 27  27 28  28 29  29 30  30 31  31 32  32 33  33 34  34 35  35 36  36 37  37 38  38 39  39 40  40 41  41 42  42 43  43 44  44 45  45 46  46 47  47 48  48 49  49 50  50 51  51 52  52 53  53 54  54 55  55 56  56 57  57 58  58 59  59 60  60 61  61 62  62 63  63 64  </DataArray>
<DataArray  type="UInt32"  Name="offsets"  format="ascii">2 4 6 8 10 12 14 16 18 20 22 24 26 28 30 32 34 36 38 40 42 44 46 48 50 52 54 56 58 60 62 64 66 68 70 72 74 76 78 80 82 84 86 88 90 92 94 96 98 100 102 104 106 108 110 112 114 116 118 120 122 124 126 128 </DataArray>
<DataArray  type="UInt8"  Name="types"  format="ascii">3 3 3 3 3 3 3 3 3 3 3 3 3 3 3 3 3 3 3 3 3 3 3 3 3 3 3 3 3 3 3 3 3 3 3 3 3 3 3 3 3 3 3 3 3 3 3 3 3 3 3 3 3 3 3 3 3 3 3 3 3 3 3 3 </DataArray>
</Cells>
<PointData  Scalars="U"> 
<DataArray  type="Float64"  Name="U"  format="ascii">0.0000000000000000e+00  -7.4725518125919030e-02  -1.5071802292776759e-01  -2.2769511989205624e-01  -3.0537655646033213e-01  -3.8348530800317593e-01  -4.6174865315805319e-01  -5.3989923495155823e-01  -6.1767610419939822e-01  -6.9482574176203815e-01  -7.7110305632591269e-01  -8.4627235447471161e-01  -9.2010827990741229e-01  -9.9239671874441038e-01  -1.0629356679354482e+00  -1.1315360638386902e+00  -1.1980225680755519e+00  -1.2622343077780080e+00  -1.3240255673324153e+00  -1.3832664286860350e+00  -1.4398433572204694e+00  -1.4936597301127135e+00  -1.5446363040035433e+00  -1.5927116186802310e+00  -1.6378423333631562e+00  -1.6800034920723592e+00  -1.7191887144500853e+00  -1.7554103083396027e+00  -1.7886993003803826e+00  -1.8191053808868665e+00  -1.8466967593442618e+00  -1.8715599269915206e+00  -1.8937993231795591e+00  -1.9135369025013542e+00  -1.9309116000977866e+00  -1.9460786930550782e+00  -1.9592090564300988e+00  -1.9704883131699624e+00  -1.9801158780305497e+00  -1.9883038965402411e+00  -1.9952760810925159e+00  -2.0012664473732551e+00  -2.0065179555216104e+00  -2.0112810616703336e+00  -2.0158121867928323e+00  -2.0203721110781112e+00  -2.0252243033372226e+00  -2.0306331961906361e+00  -2.0368624189688536e+00  -2.0441730013521342e+00  -2.0528215617533183e+00  -2.0630584952853073e+00  -2.0751261768284590e+00  -2.0892571952019043e+00  -2.1056726347285628e+00  -2.1245804205517822e+00  -2.1461737439015267e+00  -2.1706295831136542e+00  -2.1981073355755005e+00  -2.2287475749080068e+00  -2.2626709466072206e+00  -2.2999772140690729e+00  -2.3407444654285738e+00  -2.3850284899798315e+00  -2.4328623311323088e+00  </DataArray> 
</PointData> 
</Piece>
</UnstructuredGrid>
</VTKFile>