<?xml version="1.0"?>
<VTKFile type="UnstructuredGrid"  version="0.1"  >
<UnstructuredGrid>
<Piece  NumberOfPoints="65" NumberOfCells="64">
<Points>
<DataArray  type="Float64"  NumberOfComponents="3"  format="ascii">0 0 0  0.0625 0 0  0.125 0 0  0.1875 0 0  0.25 0 0  0.3125 0 0  0.375 0 0  0.4375 0 0  0.5 0 0  0.5625 0 0  0.625 0 0  0.6875 0 0  0.75 0 0  0.8125 0 0  0.875 0 0  0.9375 0 0  1 0 0  1.0625 0 0  1.125 0 0  1.1875 0 0  1.25 0 0  1.3125 0 0  1.375 0 0  1.4375 0 0  1.5 0 0  1.5625 0 0  1.625 0 0  1.6875 0 0  1.75 0 0  1.8125 0 0  1.875 0 0  1.9375 0 0  2 0 0  2.0625 0 0  2.125 0 0  2.1875 0 0  2.25 0 0  2.3125 0 0  2.375 0 0  2.4375 0 0  2.5 0 0  2.5625 0 0  2.625 0 0  2.6875 0 0  2.75 0 0  2.8125 0 0  2.875 0 0  2.9375 0 0  3 0 0  3.0625 0 0  3.125 0 0  3.1875 0 0  3.25 0 0  3.3125 0 0  3.375 0 0  3.4375 0 0  3.5 0 0  3.5625 0 0  3.625 0 0  3.6875 0 0  3.75 0 0  3.8125 0 0  3.875 0 0  3.9375 0 0  4 0 0  </DataArray>
</Points>
<Cells>
<DataArray  type="UInt32"  Name="connectivity"  format="ascii">0 1  1 2  2 3  3 4  4 5  5 6  6 7  7 8  8 9  9 10  10 11  11 12  12 13  13 14  14 15  15 16  16 17  17 18  18 19  19 20  20 21  21 22  22 23  23 24  24 25  25 26  26 27  27 28  28 29  29 30  30 31  31 32  32 33  33 34  34 35  35 36  36 37  37 38  38 39  39 40  40 41  41 42  42 43  43 44  44 45  45 46  46 47  47 48  48 49  49 50  50 51  51 52  52 53  53 54  54 55  55 56  56 57  57 58  58 59  59 60  60 61  61 62  62 63  63 64  </DataArray>
<DataArray  type="UInt32"  Name="offsets"  format="ascii">2 4 6 8 10 12 14 16 18 20 22 24 26 28 30 32 34 36 38 40 42 44 46 48 50 52 54 56 58 60 62 64 66 68 70 72 74 76 78 80 82 84 86 88 90 92 94 96 98 100 102 104 106 108 110 112 114 116 118 120 122 124 126 128 </DataArray>
<DataArray  type="UInt8"  Name="types"  format="ascii">3 3 3 3 3 3 3 3 3 3 3 3 3 3 3 3 3 3 3 3 3 3 3 3 3 3 3 3 3 3 3 3 3 3 3 3 3 3 3 3 3 3 3 3 3 3 3 3 3 3 3 3 3 3 3 3 3 3 3 3 3 3 3 3 </DataArray>
</Cells>
<PointData  Scalars="U"> 
<DataArray  type="Float64"  Name="U"  format="ascii">0.0000000000000000e+00  -6.1778204643523411e-02  -1.2588271860253644e-01  -1.9194139175221447e-01  -2.5958505413186456e-01  -3.2844901849035274e-01  -3.9817454868884766e-01  -4.6841028376528482e-01  -5.3881360861243510e-01  -6.0905196358824931e-01  -6.7880408692013849e-01  -7.4776118543499803e-01  -8.1562803089044811e-01  -8.8212398094316258e-01  -9.4698392550892652e-01  -1.0099591608878233e+00  -1.0708181954899354e+00  -1.1293474922485600e+00  -1.1853521538003440e+00  -1.2386565572021850e+00  -1.2891049453080476e+00  -1.3365619819184660e+00  -1.3809132774247321e+00  -1.4220658908924551e+00  -1.4599488133706018e+00  -1.4945134356892982e+00  -1.5257340021516923e+00  -1.5536080493732063e+00  -1.5781568271283570e+00  -1.5994256954950135e+00  -1.6174844899126357e+00  -1.6324278430777319e+00  -1.6443754499768006e+00  -1.6534722598998353e+00  -1.6598885770845224e+00  -1.6638200498110121e+00  -1.6654875263953874e+00  -1.6651367557064245e+00  -1.6630379096352754e+00  -1.6594849054490892e+00  -1.6547945072088550e+00  -1.6493051874615565e+00  -1.6433757332377059e+00  -1.6373835839841526e+00  -1.6317228933996943e+00  -1.6268023121519664e+00  -1.6230424940464647e+00  -1.6208733342751414e+00  -1.6207309547523070e+00  -1.6230544580889563e+00  -1.6282824782863397e+00  -1.6368495625579234e+00  -1.6491824246226578e+00  -1.6656961151596870e+00  -1.6867901596909580e+00  -1.7128447177937813e+00  -1.7442168200916224e+00  -1.7812367408068717e+00  -1.8242045636953135e+00  -1.8733869978669078e+00  -1.9290144973198486e+00  -1.9912787340052061e+00  -2.0603304689704123e+00  -2.1362778597147631e+00  -2.2191852344799545e+00  </DataArray> 
</PointData> 
</Piece>
</UnstructuredGrid>
</VTKFile>