<?xml version="1.0"?>
<VTKFile type="UnstructuredGrid"  version="0.1"  >
<UnstructuredGrid>
<Piece  NumberOfPoints="65" NumberOfCells="64">
<Points>
<DataArray  type="Float64"  NumberOfComponents="3"  format="ascii">0 0 0  0.0625 0 0  0.125 0 0  0.1875 0 0  0.25 0 0  0.3125 0 0  0.375 0 0  0.4375 0 0  0.5 0 0  0.5625 0 0  0.625 0 0  0.6875 0 0  0.75 0 0  0.8125 0 0  0.875 0 0  0.9375 0 0  1 0 0  1.0625 0 0  1.125 0 0  1.1875 0 0  1.25 0 0  1.3125 0 0  1.375 0 0  1.4375 0 0  1.5 0 0  1.5625 0 0  1.625 0 0  1.6875 0 0  1.75 0 0  1.8125 0 0  1.875 0 0  1.9375 0 0  2 0 0  2.0625 0 0  2.125 0 0  2.1875 0 0  2.25 0 0  2.3125 0 0  2.375 0 0  2.4375 0 0  2.5 0 0  2.5625 0 0  2.625 0 0  2.6875 0 0  2.75 0 0  2.8125 0 0  2.875 0 0  2.9375 0 0  3 0 0  3.0625 0 0  3.125 0 0  3.1875 0 0  3.25 0 0  3.3125 0 0  3.375 0 0  3.4375 0 0  3.5 0 0  3.5625 0 0  3.625 0 0  3.6875 0 0  3.75 0 0  3.8125 0 0  3.875 0 0  3.9375 0 0  4 0 0  </DataArray>
</Points>
<Cells>
<DataArray  type="UInt32"  Name="connectivity"  format="ascii">0 1  1 2  2 3  3 4  4 5  5 6  6 7  7 8  8 9  9 10  10 11  11 12  12 13  13 14  14 15  15 16  16 17  17 18  18 19  19 20  20 21  21 22  22 23  23 24  24 25  25 26  26 27  27 28  28 29  29 30  30 31  31 32  32 33  33 34  34 35  35 36  36 37  37 38  38 39  39 40  40 41  41 42  42 43  43 44  44 45  45 46  46 47  47 48  48 49  49 50  50 51  51 52  52 53  53 54  54 55  55 56  56 57  57 58  58 59  59 60  60 61  61 62  62 63  63 64  </DataArray>
<DataArray  type="UInt32"  Name="offsets"  format="ascii">2 4 6 8 10 12 14 16 18 20 22 24 26 28 30 32 34 36 38 40 42 44 46 48 50 52 54 56 58 60 62 64 66 68 70 72 74 76 78 80 82 84 86 88 90 92 94 96 98 100 102 104 106 108 110 112 114 116 118 120 122 124 126 128 </DataArray>
<DataArray  type="UInt8"  Name="types"  format="ascii">3 3 3 3 3 3 3 3 3 3 3 3 3 3 3 3 3 3 3 3 3 3 3 3 3 3 3 3 3 3 3 3 3 3 3 3 3 3 3 3 3 3 3 3 3 3 3 3 3 3 3 3 3 3 3 3 3 3 3 3 3 3 3 3 </DataArray>
</Cells>
<PointData  Scalars="U"> 
<DataArray  type="Float64"  Name="U"  format="ascii">0.0000000000000000e+00  2.3482428336451658e-01  4.6219382727567987e-01  6.8210863183287418e-01  8.9456869710970766e-01  1.0995740231592142e+00  1.2971246100185019e+00  1.4872204577127557e+00  1.6698615662585339e+00  1.8450479356663669e+00  2.0127795659427261e+00  2.1730564570914486e+00  2.3258786091147288e+00  2.4712460220137760e+00  2.6091586957892305e+00  2.7396166304414202e+00  2.8626198259705045e+00  2.9781682823765592e+00  3.0862619996596208e+00  3.1869009778197026e+00  3.2800852168568113e+00  3.3658147167709500e+00  3.4440894775621196e+00  3.5149094992303205e+00  3.5782747817755536e+00  3.6341853251978162e+00  3.6826411294971115e+00  3.7236421946734386e+00  3.7571885207267965e+00  3.7832801076571858e+00  3.8019169554646073e+00  3.8130990641490592e+00  3.8168264337105446e+00  3.8130990641490601e+00  3.8019169554646064e+00  3.7832801076571858e+00  3.7571885207267957e+00  3.7236421946734373e+00  3.6826411294971102e+00  3.6341853251978140e+00  3.5782747817755500e+00  3.5149094992303165e+00  3.4440894775621125e+00  3.3658147167709327e+00  3.2800852168567647e+00  3.1869009778195805e+00  3.0862619996593068e+00  2.9781682823757749e+00  2.8626198259685949e+00  2.7396166304369163e+00  2.6091586957789428e+00  2.4712460219910506e+00  2.3258786090662089e+00  2.1730564569913597e+00  2.0127795657432235e+00  1.8450479352819948e+00  1.6698615655423092e+00  1.4872204564209999e+00  1.2971246077614289e+00  1.0995740193345025e+00  8.9456869081705492e-01  6.8210862176933496e-01  4.6219381161177842e-01  2.3482425960719011e-01  -3.5156899237996167e-08  </DataArray> 
</PointData> 
</Piece>
</UnstructuredGrid>
</VTKFile>