<?xml version="1.0"?>
<VTKFile type="UnstructuredGrid"  version="0.1"  >
<UnstructuredGrid>
<Piece  NumberOfPoints="65" NumberOfCells="64">
<Points>
<DataArray  type="Float64"  NumberOfComponents="3"  format="ascii">0 0 0  0.0625 0 0  0.125 0 0  0.1875 0 0  0.25 0 0  0.3125 0 0  0.375 0 0  0.4375 0 0  0.5 0 0  0.5625 0 0  0.625 0 0  0.6875 0 0  0.75 0 0  0.8125 0 0  0.875 0 0  0.9375 0 0  1 0 0  1.0625 0 0  1.125 0 0  1.1875 0 0  1.25 0 0  1.3125 0 0  1.375 0 0  1.4375 0 0  1.5 0 0  1.5625 0 0  1.625 0 0  1.6875 0 0  1.75 0 0  1.8125 0 0  1.875 0 0  1.9375 0 0  2 0 0  2.0625 0 0  2.125 0 0  2.1875 0 0  2.25 0 0  2.3125 0 0  2.375 0 0  2.4375 0 0  2.5 0 0  2.5625 0 0  2.625 0 0  2.6875 0 0  2.75 0 0  2.8125 0 0  2.875 0 0  2.9375 0 0  3 0 0  3.0625 0 0  3.125 0 0  3.1875 0 0  3.25 0 0  3.3125 0 0  3.375 0 0  3.4375 0 0  3.5 0 0  3.5625 0 0  3.625 0 0  3.6875 0 0  3.75 0 0  3.8125 0 0  3.875 0 0  3.9375 0 0  4 0 0  </DataArray>
</Points>
<Cells>
<DataArray  type="UInt32"  Name="connectivity"  format="ascii">0 1  1 2  2 3  3 4  4 5  5 6  6 7  7 8  8 9  9 10  10 11  11 12  12 13  13 14  14 15  15 16  16 17  17 18  18 19  19 20  20 21  21 22  22 23  23 24  24 25  25 26  26 27  27 28  28 29  29 30  30 31  31 32  32 33  33 34  34 35  35 36  36 37  37 38  38 39  39 40  40 41  41 42  42 43  43 44  44 45  45 46  46 47  47 48  48 49  49 50  50 51  51 52  52 53  53 54  54 55  55 56  56 57  57 58  58 59  59 60  60 61  61 62  62 63  63 64  </DataArray>
<DataArray  type="UInt32"  Name="offsets"  format="ascii">2 4 6 8 10 12 14 16 18 20 22 24 26 28 30 32 34 36 38 40 42 44 46 48 50 52 54 56 58 60 62 64 66 68 70 72 74 76 78 80 82 84 86 88 90 92 94 96 98 100 102 104 106 108 110 112 114 116 118 120 122 124 126 128 </DataArray>
<DataArray  type="UInt8"  Name="types"  format="ascii">3 3 3 3 3 3 3 3 3 3 3 3 3 3 3 3 3 3 3 3 3 3 3 3 3 3 3 3 3 3 3 3 3 3 3 3 3 3 3 3 3 3 3 3 3 3 3 3 3 3 3 3 3 3 3 3 3 3 3 3 3 3 3 3 </DataArray>
</Cells>
<PointData  Scalars="U"> 
<DataArray  type="Float64"  Name="U"  format="ascii">0.0000000000000000e+00  1.8648829624334431e-01  3.6705632745771877e-01  5.4170409390877572e-01  7.1043159583577109e-01  8.7323883345316444e-01  1.0301258069522623e+00  1.1810925165028807e+00  1.3261389622550148e+00  1.4652651443404856e+00  1.5984710628745493e+00  1.7257567179574620e+00  1.8471221096759731e+00  1.9625672381047470e+00  2.0720921033077011e+00  2.1756967053392517e+00  2.2733810442454678e+00  2.3651451200651277e+00  2.4509889328306751e+00  2.5309124825690854e+00  2.6049157693026310e+00  2.6729987930495596e+00  2.7351615538246818e+00  2.7914040516398764e+00  2.8417262865045121e+00  2.8861282584257983e+00  2.9246099674090518e+00  2.9571714134579046e+00  2.9838125965744235e+00  3.0045335167591736e+00  3.0193341740111985e+00  3.0282145683279276e+00  3.0311746997050006e+00  3.0282145681360051e+00  3.0193341736121124e+00  3.0045335161216178e+00  2.9838125956493511e+00  2.9571714121759687e+00  2.9246099656770923e+00  2.8861282561223054e+00  2.8417262834739723e+00  2.7914040476858761e+00  2.7351615487016745e+00  2.6729987864531508e+00  2.6049157608582676e+00  2.5309124718190099e+00  2.4509889192190375e+00  2.3651451029211490e+00  2.2733810227645708e+00  2.1756966785621112e+00  2.0720920700971894e+00  1.9625671971208001e+00  1.8471220593484527e+00  1.7257566564571369e+00  1.5984709880823829e+00  1.4652650538154839e+00  1.3261388532009446e+00  1.1810923857342401e+00  1.0301256508599561e+00  8.7323864797038098e-01  7.1043137640462628e-01  5.4170383544833656e-01  3.6705602433404666e-01  1.8648794224223186e-01  -4.1169691005445059e-07  </DataArray> 
</PointData> 
</Piece>
</UnstructuredGrid>
</VTKFile>