<?xml version="1.0"?>
<VTKFile type="UnstructuredGrid"  version="0.1"  >
<UnstructuredGrid>
<Piece  NumberOfPoints="65" NumberOfCells="64">
<Points>
<DataArray  type="Float64"  NumberOfComponents="3"  format="ascii">0 0 0  0.0625 0 0  0.125 0 0  0.1875 0 0  0.25 0 0  0.3125 0 0  0.375 0 0  0.4375 0 0  0.5 0 0  0.5625 0 0  0.625 0 0  0.6875 0 0  0.75 0 0  0.8125 0 0  0.875 0 0  0.9375 0 0  1 0 0  1.0625 0 0  1.125 0 0  1.1875 0 0  1.25 0 0  1.3125 0 0  1.375 0 0  1.4375 0 0  1.5 0 0  1.5625 0 0  1.625 0 0  1.6875 0 0  1.75 0 0  1.8125 0 0  1.875 0 0  1.9375 0 0  2 0 0  2.0625 0 0  2.125 0 0  2.1875 0 0  2.25 0 0  2.3125 0 0  2.375 0 0  2.4375 0 0  2.5 0 0  2.5625 0 0  2.625 0 0  2.6875 0 0  2.75 0 0  2.8125 0 0  2.875 0 0  2.9375 0 0  3 0 0  3.0625 0 0  3.125 0 0  3.1875 0 0  3.25 0 0  3.3125 0 0  3.375 0 0  3.4375 0 0  3.5 0 0  3.5625 0 0  3.625 0 0  3.6875 0 0  3.75 0 0  3.8125 0 0  3.875 0 0  3.9375 0 0  4 0 0  </DataArray>
</Points>
<Cells>
<DataArray  type="UInt32"  Name="connectivity"  format="ascii">0 1  1 2  2 3  3 4  4 5  5 6  6 7  7 8  8 9  9 10  10 11  11 12  12 13  13 14  14 15  15 16  16 17  17 18  18 19  19 20  20 21  21 22  22 23  23 24  24 25  25 26  26 27  27 28  28 29  29 30  30 31  31 32  32 33  33 34  34 35  35 36  36 37  37 38  38 39  39 40  40 41  41 42  42 43  43 44  44 45  45 46  46 47  47 48  48 49  49 50  50 51  51 52  52 53  53 54  54 55  55 56  56 57  57 58  58 59  59 60  60 61  61 62  62 63  63 64  </DataArray>
<DataArray  type="UInt32"  Name="offsets"  format="ascii">2 4 6 8 10 12 14 16 18 20 22 24 26 28 30 32 34 36 38 40 42 44 46 48 50 52 54 56 58 60 62 64 66 68 70 72 74 76 78 80 82 84 86 88 90 92 94 96 98 100 102 104 106 108 110 112 114 116 118 120 122 124 126 128 </DataArray>
<DataArray  type="UInt8"  Name="types"  format="ascii">3 3 3 3 3 3 3 3 3 3 3 3 3 3 3 3 3 3 3 3 3 3 3 3 3 3 3 3 3 3 3 3 3 3 3 3 3 3 3 3 3 3 3 3 3 3 3 3 3 3 3 3 3 3 3 3 3 3 3 3 3 3 3 3 </DataArray>
</Cells>
<PointData  Scalars="U"> 
<DataArray  type="Float64"  Name="U"  format="ascii">0.0000000000000000e+00  1.2618423048442612e-01  2.4836260943672137e-01  3.6653513720057934e-01  4.8070181410029628e-01  5.9086264044110604e-01  6.9701761650957206e-01  7.9916674257402687e-01  8.9731001888505291e-01  9.9144744567599552e-01  1.0815790231635036e+00  1.1677047515480843e+00  1.2498246310146712e+00  1.3279386617331923e+00  1.4020468438591378e+00  1.4721491775341120e+00  1.5382456628863717e+00  1.6003363000313351e+00  1.6584210890720645e+00  1.7125000300997117e+00  1.7625731231939201e+00  1.8086403684231827e+00  1.8507017658451461e+00  1.8887573155068642e+00  1.9228070174449878e+00  1.9528508716858965e+00  1.9788888782457632e+00  2.0009210371305572e+00  2.0189473483359728e+00  2.0329678118472976e+00  2.0429824276392043e+00  2.0489911956754825e+00  2.0509941159086997e+00  2.0489911882797989e+00  2.0429824127176333e+00  2.0329677891384494e+00  2.0189473174453099e+00  2.0009209975274742e+00  1.9788888292597329e+00  1.9528508125017154e+00  1.9228069470971640e+00  1.8887572328731956e+00  1.8507016696395535e+00  1.8086402571878655e+00  1.7625729952909122e+00  1.7124998837019241e+00  1.6584209221539197e+00  1.6003361103590885e+00  1.5382454480082466e+00  1.4721489347703665e+00  1.4020465702922011e+00  1.3279383541980103e+00  1.2498242860894127e+00  1.1677043655453634e+00  1.0815785921222811e+00  9.9144696535432864e-01  8.9730948475386296e-01  7.9916614981205891e-01  6.9701695999972157e-01  5.9086191476828875e-01  4.8070101355103106e-01  3.6653425576445314e-01  2.4836164080989823e-01  1.2618316807535354e-01  -1.1630625414713667e-06  </DataArray> 
</PointData> 
</Piece>
</UnstructuredGrid>
</VTKFile>