<?xml version="1.0"?>
<VTKFile type="UnstructuredGrid"  version="0.1"  >
<UnstructuredGrid>
<Piece  NumberOfPoints="65" NumberOfCells="64">
<Points>
<DataArray  type="Float64"  NumberOfComponents="3"  format="ascii">0 0 0  0.0625 0 0  0.125 0 0  0.1875 0 0  0.25 0 0  0.3125 0 0  0.375 0 0  0.4375 0 0  0.5 0 0  0.5625 0 0  0.625 0 0  0.6875 0 0  0.75 0 0  0.8125 0 0  0.875 0 0  0.9375 0 0  1 0 0  1.0625 0 0  1.125 0 0  1.1875 0 0  1.25 0 0  1.3125 0 0  1.375 0 0  1.4375 0 0  1.5 0 0  1.5625 0 0  1.625 0 0  1.6875 0 0  1.75 0 0  1.8125 0 0  1.875 0 0  1.9375 0 0  2 0 0  2.0625 0 0  2.125 0 0  2.1875 0 0  2.25 0 0  2.3125 0 0  2.375 0 0  2.4375 0 0  2.5 0 0  2.5625 0 0  2.625 0 0  2.6875 0 0  2.75 0 0  2.8125 0 0  2.875 0 0  2.9375 0 0  3 0 0  3.0625 0 0  3.125 0 0  3.1875 0 0  3.25 0 0  3.3125 0 0  3.375 0 0  3.4375 0 0  3.5 0 0  3.5625 0 0  3.625 0 0  3.6875 0 0  3.75 0 0  3.8125 0 0  3.875 0 0  3.9375 0 0  4 0 0  </DataArray>
</Points>
<Cells>
<DataArray  type="UInt32"  Name="connectivity"  format="ascii">0 1  1 2  2 3  3 4  4 5  5 6  6 7  7 8  8 9  9 10  10 11  11 12  12 13  13 14  14 15  15 16  16 17  17 18  18 19  19 20  20 21  21 22  22 23  23 24  24 25  25 26  26 27  27 28  28 29  29 30  30 31  31 32  32 33  33 34  34 35  35 36  36 37  37 38  38 39  39 40  40 41  41 42  42 43  43 44  44 45  45 46  46 47  47 48  48 49  49 50  50 51  51 52  52 53  53 54  54 55  55 56  56 57  57 58  58 59  59 60  60 61  61 62  62 63  63 64  </DataArray>
<DataArray  type="UInt32"  Name="offsets"  format="ascii">2 4 6 8 10 12 14 16 18 20 22 24 26 28 30 32 34 36 38 40 42 44 46 48 50 52 54 56 58 60 62 64 66 68 70 72 74 76 78 80 82 84 86 88 90 92 94 96 98 100 102 104 106 108 110 112 114 116 118 120 122 124 126 128 </DataArray>
<DataArray  type="UInt8"  Name="types"  format="ascii">3 3 3 3 3 3 3 3 3 3 3 3 3 3 3 3 3 3 3 3 3 3 3 3 3 3 3 3 3 3 3 3 3 3 3 3 3 3 3 3 3 3 3 3 3 3 3 3 3 3 3 3 3 3 3 3 3 3 3 3 3 3 3 3 </DataArray>
</Cells>
<PointData  Scalars="U"> 
<DataArray  type="Float64"  Name="U"  format="ascii">0.0000000000000000e+00  1.5703885701806661e-01  3.0909235114254879e-01  4.5616048268851450e-01  5.9824325194779948e-01  7.3534065918987113e-01  8.6745270466275448e-01  9.9457938859400308e-01  1.1167207111917083e+00  1.2338766726455335e+00  1.3460472731277606e+00  1.4532325127943408e+00  1.5554323917859361e+00  1.6526469102289401e+00  1.7448760682364843e+00  1.8321198659093989e+00  1.9143783033371333e+00  1.9916513805986362e+00  2.0639390977631678e+00  2.1312414548910672e+00  2.1935584520344387e+00  2.2508900892377790e+00  2.3032363665385236e+00  2.3505972839675211e+00  2.3929728415494220e+00  2.4303630393029771e+00  2.4627678772412627e+00  2.4901873553717979e+00  2.5126214736965800e+00  2.5300702322120174e+00  2.5425336309087649e+00  2.5500116697714557e+00  2.5525043487783345e+00  2.5500116679007787e+00  2.5425336271027166e+00  2.5300702263399377e+00  2.5126214655592940e+00  2.4901873446978011e+00  2.4627678636816217e+00  2.4303630224249639e+00  2.3929728208288723e+00  2.3505972587799357e+00  2.3032363361489119e+00  2.2508900527892788e+00  2.1935584085357371e+00  2.1312414032026572e+00  2.0639390365825085e+00  1.9916513084442804e+00  1.9143782185319116e+00  1.8321197665627660e+00  1.7448759522261623e+00  1.6526467751819991e+00  1.5554322350594925e+00  1.4532323314560638e+00  1.3460470639363991e+00  1.2338764320317148e+00  1.1167204352392572e+00  9.9457907302206017e-01  8.6745234480899269e-01  7.3534024999511516e-01  5.9824278794236663e-01  4.5615995798060360e-01  3.0909175940900047e-01  1.5703819149782378e-01  -7.4650941528026407e-07  </DataArray> 
</PointData> 
</Piece>
</UnstructuredGrid>
</VTKFile>