<?xml version="1.0"?>
<VTKFile type="UnstructuredGrid"  version="0.1"  >
<UnstructuredGrid>
<Piece  NumberOfPoints="65" NumberOfCells="64">
<Points>
<DataArray  type="Float64"  NumberOfComponents="3"  format="ascii">0 0 0  0.0625 0 0  0.125 0 0  0.1875 0 0  0.25 0 0  0.3125 0 0  0.375 0 0  0.4375 0 0  0.5 0 0  0.5625 0 0  0.625 0 0  0.6875 0 0  0.75 0 0  0.8125 0 0  0.875 0 0  0.9375 0 0  1 0 0  1.0625 0 0  1.125 0 0  1.1875 0 0  1.25 0 0  1.3125 0 0  1.375 0 0  1.4375 0 0  1.5 0 0  1.5625 0 0  1.625 0 0  1.6875 0 0  1.75 0 0  1.8125 0 0  1.875 0 0  1.9375 0 0  2 0 0  2.0625 0 0  2.125 0 0  2.1875 0 0  2.25 0 0  2.3125 0 0  2.375 0 0  2.4375 0 0  2.5 0 0  2.5625 0 0  2.625 0 0  2.6875 0 0  2.75 0 0  2.8125 0 0  2.875 0 0  2.9375 0 0  3 0 0  3.0625 0 0  3.125 0 0  3.1875 0 0  3.25 0 0  3.3125 0 0  3.375 0 0  3.4375 0 0  3.5 0 0  3.5625 0 0  3.625 0 0  3.6875 0 0  3.75 0 0  3.8125 0 0  3.875 0 0  3.9375 0 0  4 0 0  </DataArray>
</Points>
<Cells>
<DataArray  type="UInt32"  Name="connectivity"  format="ascii">0 1  1 2  2 3  3 4  4 5  5 6  6 7  7 8  8 9  9 10  10 11  11 12  12 13  13 14  14 15  15 16  16 17  17 18  18 19  19 20  20 21  21 22  22 23  23 24  24 25  25 26  26 27  27 28  28 29  29 30  30 31  31 32  32 33  33 34  34 35  35 36  36 37  37 38  38 39  39 40  40 41  41 42  42 43  43 44  44 45  45 46  46 47  47 48  48 49  49 50  50 51  51 52  52 53  53 54  54 55  55 56  56 57  57 58  58 59  59 60  60 61  61 62  62 63  63 64  </DataArray>
<DataArray  type="UInt32"  Name="offsets"  format="ascii">2 4 6 8 10 12 14 16 18 20 22 24 26 28 30 32 34 36 38 40 42 44 46 48 50 52 54 56 58 60 62 64 66 68 70 72 74 76 78 80 82 84 86 88 90 92 94 96 98 100 102 104 106 108 110 112 114 116 118 120 122 124 126 128 </DataArray>
<DataArray  type="UInt8"  Name="types"  format="ascii">3 3 3 3 3 3 3 3 3 3 3 3 3 3 3 3 3 3 3 3 3 3 3 3 3 3 3 3 3 3 3 3 3 3 3 3 3 3 3 3 3 3 3 3 3 3 3 3 3 3 3 3 3 3 3 3 3 3 3 3 3 3 3 3 </DataArray>
</Cells>
<PointData  Scalars="U"> 
<DataArray  type="Float64"  Name="U"  format="ascii">0.0000000000000000e+00  9.4507582464413875e-02  1.8601492084946297e-01  2.7452201550232519e-01  3.6002886675495516e-01  4.4253547492399020e-01  5.2204184031070278e-01  5.9854796320099324e-01  6.7205384386541922e-01  7.4255948255925697e-01  8.1006487952258832e-01  8.7457003498041219e-01  9.3607494914277145e-01  9.9457962220489438e-01  1.0500840543473446e+00  1.1025882457361751e+00  1.1520921965230804e+00  1.1985959068455503e+00  1.2420993768270112e+00  1.2826026065769585e+00  1.3201055961910764e+00  1.3546083457513367e+00  1.3861108553260870e+00  1.4146131249701062e+00  1.4401151547246485e+00  1.4626169446174557e+00  1.4821184946627501e+00  1.4986198048611972e+00  1.5121208751998481e+00  1.5226217056520543e+00  1.5301222961773613e+00  1.5346226467213817e+00  1.5361227572156428e+00  1.5346226275774268e+00  1.5301222577095861e+00  1.5226216475003589e+00  1.5121207968231691e+00  1.4986197055364299e+00  1.4821183734833481e+00  1.4626168004917321e+00  1.4401149863738216e+00  1.4146129309261264e+00  1.3861106339292979e+00  1.3546080951480250e+00  1.3201053143309709e+00  1.2826022912107531e+00  1.2420990255039697e+00  1.1985955169112890e+00  1.1520917651175926e+00  1.1025877697921940e+00  1.0500835305891290e+00  9.9457904714752410e-01  9.3607431909205474e-01  8.7456934603348713e-01  8.1006412756931911e-01  7.4255866328451492e-01  6.7205295275234234e-01  5.9854699553531010e-01  5.2204079118621283e-01  4.4253433924927571e-01  3.6002763926140818e-01  2.7452069075355706e-01  1.8601349325216332e-01  9.4506046280715586e-02  -1.6506386015765470e-06  </DataArray> 
</PointData> 
</Piece>
</UnstructuredGrid>
</VTKFile>