<?xml version="1.0"?>
<VTKFile type="UnstructuredGrid"  version="0.1"  >
<UnstructuredGrid>
<Piece  NumberOfPoints="65" NumberOfCells="64">
<Points>
<DataArray  type="Float64"  NumberOfComponents="3"  format="ascii">0 0 0  0.0625 0 0  0.125 0 0  0.1875 0 0  0.25 0 0  0.3125 0 0  0.375 0 0  0.4375 0 0  0.5 0 0  0.5625 0 0  0.625 0 0  0.6875 0 0  0.75 0 0  0.8125 0 0  0.875 0 0  0.9375 0 0  1 0 0  1.0625 0 0  1.125 0 0  1.1875 0 0  1.25 0 0  1.3125 0 0  1.375 0 0  1.4375 0 0  1.5 0 0  1.5625 0 0  1.625 0 0  1.6875 0 0  1.75 0 0  1.8125 0 0  1.875 0 0  1.9375 0 0  2 0 0  2.0625 0 0  2.125 0 0  2.1875 0 0  2.25 0 0  2.3125 0 0  2.375 0 0  2.4375 0 0  2.5 0 0  2.5625 0 0  2.625 0 0  2.6875 0 0  2.75 0 0  2.8125 0 0  2.875 0 0  2.9375 0 0  3 0 0  3.0625 0 0  3.125 0 0  3.1875 0 0  3.25 0 0  3.3125 0 0  3.375 0 0  3.4375 0 0  3.5 0 0  3.5625 0 0  3.625 0 0  3.6875 0 0  3.75 0 0  3.8125 0 0  3.875 0 0  3.9375 0 0  4 0 0  </DataArray>
</Points>
<Cells>
<DataArray  type="UInt32"  Name="connectivity"  format="ascii">0 1  1 2  2 3  3 4  4 5  5 6  6 7  7 8  8 9  9 10  10 11  11 12  12 13  13 14  14 15  15 16  16 17  17 18  18 19  19 20  20 21  21 22  22 23  23 24  24 25  25 26  26 27  27 28  28 29  29 30  30 31  31 32  32 33  33 34  34 35  35 36  36 37  37 38  38 39  39 40  40 41  41 42  42 43  43 44  44 45  45 46  46 47  47 48  48 49  49 50  50 51  51 52  52 53  53 54  54 55  55 56  56 57  57 58  58 59  59 60  60 61  61 62  62 63  63 64  </DataArray>
<DataArray  type="UInt32"  Name="offsets"  format="ascii">2 4 6 8 10 12 14 16 18 20 22 24 26 28 30 32 34 36 38 40 42 44 46 48 50 52 54 56 58 60 62 64 66 68 70 72 74 76 78 80 82 84 86 88 90 92 94 96 98 100 102 104 106 108 110 112 114 116 118 120 122 124 126 128 </DataArray>
<DataArray  type="UInt8"  Name="types"  format="ascii">3 3 3 3 3 3 3 3 3 3 3 3 3 3 3 3 3 3 3 3 3 3 3 3 3 3 3 3 3 3 3 3 3 3 3 3 3 3 3 3 3 3 3 3 3 3 3 3 3 3 3 3 3 3 3 3 3 3 3 3 3 3 3 3 </DataArray>
</Cells>
<PointData  Scalars="U"> 
<DataArray  type="Float64"  Name="U"  format="ascii">0.0000000000000000e+00  1.3804598522014619e-01  2.7170955547453723e-01  4.0099071109854495e-01  5.2588945240663432e-01  6.4640577969288515e-01  7.6253969323157356e-01  8.7429119327780269e-01  9.8166028006817452e-01  1.0846469538214942e+00  1.1832512147394962e+00  1.2774730630075875e+00  1.3673124987955927e+00  1.4527695222584993e+00  1.5338441335371935e+00  1.6105363327591724e+00  1.6828461200392388e+00  1.7507734954801573e+00  1.8143184591732722e+00  1.8734810111990841e+00  1.9282611516277695e+00  1.9786588805196499e+00  2.0246741979255951e+00  2.0663071038873628e+00  2.1035575984378676e+00  2.1364256816013780e+00  2.1649113533936348e+00  2.1890146138218913e+00  2.2087354628848703e+00  2.2240739005726446e+00  2.2350299268664222e+00  2.2416035417382587e+00  2.2437947451506783e+00  2.2416035370562173e+00  2.2350299173968797e+00  2.2240738861035254e+00  2.2087354430951720e+00  2.1890145882782375e+00  2.1649113215457105e+00  2.1364256427762722e+00  2.1035575518333589e+00  2.0663070485641946e+00  2.0246741327987881e+00  1.9786588043489104e+00  1.9282610630070764e+00  1.8734809085455235e+00  1.8143183407152177e+00  1.7507733592448997e+00  1.6828459638401847e+00  1.6105361541827337e+00  1.5338439299295177e+00  1.4527692907121834e+00  1.3673122361365548e+00  1.2774727657822678e+00  1.1832508792025718e+00  1.0846465759243116e+00  9.8165985544809520e-01  8.7429071724867891e-01  7.6253916077556738e-01  6.4640518545385095e-01  5.2588879068528371e-01  4.0098997584961221e-01  2.7170874030615810e-01  1.3804508339565899e-01  -9.9555763541899734e-07  </DataArray> 
</PointData> 
</Piece>
</UnstructuredGrid>
</VTKFile>