<?xml version="1.0"?>
<VTKFile type="UnstructuredGrid"  version="0.1"  >
<UnstructuredGrid>
<Piece  NumberOfPoints="65" NumberOfCells="64">
<Points>
<DataArray  type="Float64"  NumberOfComponents="3"  format="ascii">0 0 0  0.0625 0 0  0.125 0 0  0.1875 0 0  0.25 0 0  0.3125 0 0  0.375 0 0  0.4375 0 0  0.5 0 0  0.5625 0 0  0.625 0 0  0.6875 0 0  0.75 0 0  0.8125 0 0  0.875 0 0  0.9375 0 0  1 0 0  1.0625 0 0  1.125 0 0  1.1875 0 0  1.25 0 0  1.3125 0 0  1.375 0 0  1.4375 0 0  1.5 0 0  1.5625 0 0  1.625 0 0  1.6875 0 0  1.75 0 0  1.8125 0 0  1.875 0 0  1.9375 0 0  2 0 0  2.0625 0 0  2.125 0 0  2.1875 0 0  2.25 0 0  2.3125 0 0  2.375 0 0  2.4375 0 0  2.5 0 0  2.5625 0 0  2.625 0 0  2.6875 0 0  2.75 0 0  2.8125 0 0  2.875 0 0  2.9375 0 0  3 0 0  3.0625 0 0  3.125 0 0  3.1875 0 0  3.25 0 0  3.3125 0 0  3.375 0 0  3.4375 0 0  3.5 0 0  3.5625 0 0  3.625 0 0  3.6875 0 0  3.75 0 0  3.8125 0 0  3.875 0 0  3.9375 0 0  4 0 0  </DataArray>
</Points>
<Cells>
<DataArray  type="UInt32"  Name="connectivity"  format="ascii">0 1  1 2  2 3  3 4  4 5  5 6  6 7  7 8  8 9  9 10  10 11  11 12  12 13  13 14  14 15  15 16  16 17  17 18  18 19  19 20  20 21  21 22  22 23  23 24  24 25  25 26  26 27  27 28  28 29  29 30  30 31  31 32  32 33  33 34  34 35  35 36  36 37  37 38  38 39  39 40  40 41  41 42  42 43  43 44  44 45  45 46  46 47  47 48  48 49  49 50  50 51  51 52  52 53  53 54  54 55  55 56  56 57  57 58  58 59  59 60  60 61  61 62  62 63  63 64  </DataArray>
<DataArray  type="UInt32"  Name="offsets"  format="ascii">2 4 6 8 10 12 14 16 18 20 22 24 26 28 30 32 34 36 38 40 42 44 46 48 50 52 54 56 58 60 62 64 66 68 70 72 74 76 78 80 82 84 86 88 90 92 94 96 98 100 102 104 106 108 110 112 114 116 118 120 122 124 126 128 </DataArray>
<DataArray  type="UInt8"  Name="types"  format="ascii">3 3 3 3 3 3 3 3 3 3 3 3 3 3 3 3 3 3 3 3 3 3 3 3 3 3 3 3 3 3 3 3 3 3 3 3 3 3 3 3 3 3 3 3 3 3 3 3 3 3 3 3 3 3 3 3 3 3 3 3 3 3 3 3 </DataArray>
</Cells>
<PointData  Scalars="U"> 
<DataArray  type="Float64"  Name="U"  format="ascii">0.0000000000000000e+00  2.3390878916067945e-01  4.6039190214892017e-01  6.7944933906957283e-01  8.9108110000138219e-01  1.0952871850019956e+00  1.2920675941125048e+00  1.4814223273613936e+00  1.6633513847678383e+00  1.8378547663443656e+00  2.0049324720989063e+00  2.1645845020363224e+00  2.3168108561594960e+00  2.4616115344700780e+00  2.5989865369689826e+00  2.7289358636566989e+00  2.8514595145334782e+00  2.9665574895994449e+00  3.0742297888546606e+00  3.1744764122991538e+00  3.2672973599329342e+00  3.3526926317560100e+00  3.4306622277683818e+00  3.5012061479700507e+00  3.5643243923610171e+00  3.6200169609412827e+00  3.6682838537108453e+00  3.7091250706697063e+00  3.7425406118178648e+00  3.7685304771553216e+00  3.7870946666820764e+00  3.7982331803981300e+00  3.8019460183034801e+00  3.7982331803981291e+00  3.7870946666820764e+00  3.7685304771553212e+00  3.7425406118178643e+00  3.7091250706697045e+00  3.6682838537108435e+00  3.6200169609412800e+00  3.5643243923610135e+00  3.5012061479700427e+00  3.4306622277683640e+00  3.3526926317559660e+00  3.2672973599328241e+00  3.1744764122988762e+00  3.0742297888539829e+00  2.9665574895978319e+00  2.8514595145297514e+00  2.7289358636483483e+00  2.5989865369508478e+00  2.4616115344319267e+00  2.3168108560817671e+00  2.1645845018829375e+00  2.0049324718056662e+00  1.8378547658009685e+00  1.6633513837911758e+00  1.4814223256575110e+00  1.2920675912245938e+00  1.0952871802421855e+00  8.9108109236498412e-01  6.7944932713124173e-01  4.6039188394323183e-01  2.3390876204839833e-01  -3.9471442226648545e-08  </DataArray> 
</PointData> 
</Piece>
</UnstructuredGrid>
</VTKFile>