<?xml version="1.0"?>
<VTKFile type="UnstructuredGrid"  version="0.1"  >
<UnstructuredGrid>
<Piece  NumberOfPoints="65" NumberOfCells="64">
<Points>
<DataArray  type="Float64"  NumberOfComponents="3"  format="ascii">0 0 0  0.0625 0 0  0.125 0 0  0.1875 0 0  0.25 0 0  0.3125 0 0  0.375 0 0  0.4375 0 0  0.5 0 0  0.5625 0 0  0.625 0 0  0.6875 0 0  0.75 0 0  0.8125 0 0  0.875 0 0  0.9375 0 0  1 0 0  1.0625 0 0  1.125 0 0  1.1875 0 0  1.25 0 0  1.3125 0 0  1.375 0 0  1.4375 0 0  1.5 0 0  1.5625 0 0  1.625 0 0  1.6875 0 0  1.75 0 0  1.8125 0 0  1.875 0 0  1.9375 0 0  2 0 0  2.0625 0 0  2.125 0 0  2.1875 0 0  2.25 0 0  2.3125 0 0  2.375 0 0  2.4375 0 0  2.5 0 0  2.5625 0 0  2.625 0 0  2.6875 0 0  2.75 0 0  2.8125 0 0  2.875 0 0  2.9375 0 0  3 0 0  3.0625 0 0  3.125 0 0  3.1875 0 0  3.25 0 0  3.3125 0 0  3.375 0 0  3.4375 0 0  3.5 0 0  3.5625 0 0  3.625 0 0  3.6875 0 0  3.75 0 0  3.8125 0 0  3.875 0 0  3.9375 0 0  4 0 0  </DataArray>
</Points>
<Cells>
<DataArray  type="UInt32"  Name="connectivity"  format="ascii">0 1  1 2  2 3  3 4  4 5  5 6  6 7  7 8  8 9  9 10  10 11  11 12  12 13  13 14  14 15  15 16  16 17  17 18  18 19  19 20  20 21  21 22  22 23  23 24  24 25  25 26  26 27  27 28  28 29  29 30  30 31  31 32  32 33  33 34  34 35  35 36  36 37  37 38  38 39  39 40  40 41  41 42  42 43  43 44  44 45  45 46  46 47  47 48  48 49  49 50  50 51  51 52  52 53  53 54  54 55  55 56  56 57  57 58  58 59  59 60  60 61  61 62  62 63  63 64  </DataArray>
<DataArray  type="UInt32"  Name="offsets"  format="ascii">2 4 6 8 10 12 14 16 18 20 22 24 26 28 30 32 34 36 38 40 42 44 46 48 50 52 54 56 58 60 62 64 66 68 70 72 74 76 78 80 82 84 86 88 90 92 94 96 98 100 102 104 106 108 110 112 114 116 118 120 122 124 126 128 </DataArray>
<DataArray  type="UInt8"  Name="types"  format="ascii">3 3 3 3 3 3 3 3 3 3 3 3 3 3 3 3 3 3 3 3 3 3 3 3 3 3 3 3 3 3 3 3 3 3 3 3 3 3 3 3 3 3 3 3 3 3 3 3 3 3 3 3 3 3 3 3 3 3 3 3 3 3 3 3 </DataArray>
</Cells>
<PointData  Scalars="U"> 
<DataArray  type="Float64"  Name="U"  format="ascii">0.0000000000000000e+00  2.3028236526185847e-01  4.5325417881179197e-01  6.6891544077450971e-01  8.7726615124765572e-01  1.0783063103062238e+00  1.2720359180066654e+00  1.4584549743905977e+00  1.6375634794880449e+00  1.8093614333201906e+00  1.9738488359016402e+00  2.1310256872422269e+00  2.2808919873484119e+00  2.4234477362243387e+00  2.5586929338725928e+00  2.6866275802947501e+00  2.8072516754917438e+00  2.9205652194641147e+00  3.0265682122121635e+00  3.1252606537360563e+00  3.2166425440358801e+00  3.3007138831116802e+00  3.3774746709634802e+00  3.4469249075912929e+00  3.5090645929951196e+00  3.5638937271749662e+00  3.6114123101308331e+00  3.6516203418627184e+00  3.6845178223706259e+00  3.7101047516545540e+00  3.7283811297145024e+00  3.7393469565504716e+00  3.7430022321624605e+00  3.7393469565504711e+00  3.7283811297145011e+00  3.7101047516545522e+00  3.6845178223706228e+00  3.6516203418627127e+00  3.6114123101308206e+00  3.5638937271749382e+00  3.5090645929950552e+00  3.4469249075911441e+00  3.3774746709631445e+00  3.3007138831109333e+00  3.2166425440342614e+00  3.1252606537326315e+00  3.0265682122050950e+00  2.9205652194498852e+00  2.8072516754638110e+00  2.6866275802412773e+00  2.5586929337727589e+00  2.4234477360425069e+00  2.2808919870252216e+00  2.1310256866814035e+00  1.9738488349510974e+00  1.8093614317457636e+00  1.6375634769381482e+00  1.4584549703501413e+00  1.2720359117388476e+00  1.0783063007812865e+00  8.7726613705855483e-01  6.6891542004011351e-01  4.5325414906986378e-01  2.3028232335419713e-01  -5.8045375349339898e-08  </DataArray> 
</PointData> 
</Piece>
</UnstructuredGrid>
</VTKFile>