<?xml version="1.0"?>
<VTKFile type="UnstructuredGrid"  version="0.1"  >
<UnstructuredGrid>
<Piece  NumberOfPoints="65" NumberOfCells="64">
<Points>
<DataArray  type="Float64"  NumberOfComponents="3"  format="ascii">0 0 0  0.0625 0 0  0.125 0 0  0.1875 0 0  0.25 0 0  0.3125 0 0  0.375 0 0  0.4375 0 0  0.5 0 0  0.5625 0 0  0.625 0 0  0.6875 0 0  0.75 0 0  0.8125 0 0  0.875 0 0  0.9375 0 0  1 0 0  1.0625 0 0  1.125 0 0  1.1875 0 0  1.25 0 0  1.3125 0 0  1.375 0 0  1.4375 0 0  1.5 0 0  1.5625 0 0  1.625 0 0  1.6875 0 0  1.75 0 0  1.8125 0 0  1.875 0 0  1.9375 0 0  2 0 0  2.0625 0 0  2.125 0 0  2.1875 0 0  2.25 0 0  2.3125 0 0  2.375 0 0  2.4375 0 0  2.5 0 0  2.5625 0 0  2.625 0 0  2.6875 0 0  2.75 0 0  2.8125 0 0  2.875 0 0  2.9375 0 0  3 0 0  3.0625 0 0  3.125 0 0  3.1875 0 0  3.25 0 0  3.3125 0 0  3.375 0 0  3.4375 0 0  3.5 0 0  3.5625 0 0  3.625 0 0  3.6875 0 0  3.75 0 0  3.8125 0 0  3.875 0 0  3.9375 0 0  4 0 0  </DataArray>
</Points>
<Cells>
<DataArray  type="UInt32"  Name="connectivity"  format="ascii">0 1  1 2  2 3  3 4  4 5  5 6  6 7  7 8  8 9  9 10  10 11  11 12  12 13  13 14  14 15  15 16  16 17  17 18  18 19  19 20  20 21  21 22  22 23  23 24  24 25  25 26  26 27  27 28  28 29  29 30  30 31  31 32  32 33  33 34  34 35  35 36  36 37  37 38  38 39  39 40  40 41  41 42  42 43  43 44  44 45  45 46  46 47  47 48  48 49  49 50  50 51  51 52  52 53  53 54  54 55  55 56  56 57  57 58  58 59  59 60  60 61  61 62  62 63  63 64  </DataArray>
<DataArray  type="UInt32"  Name="offsets"  format="ascii">2 4 6 8 10 12 14 16 18 20 22 24 26 28 30 32 34 36 38 40 42 44 46 48 50 52 54 56 58 60 62 64 66 68 70 72 74 76 78 80 82 84 86 88 90 92 94 96 98 100 102 104 106 108 110 112 114 116 118 120 122 124 126 128 </DataArray>
<DataArray  type="UInt8"  Name="types"  format="ascii">3 3 3 3 3 3 3 3 3 3 3 3 3 3 3 3 3 3 3 3 3 3 3 3 3 3 3 3 3 3 3 3 3 3 3 3 3 3 3 3 3 3 3 3 3 3 3 3 3 3 3 3 3 3 3 3 3 3 3 3 3 3 3 3 </DataArray>
</Cells>
<PointData  Scalars="U"> 
<DataArray  type="Float64"  Name="U"  format="ascii">0.0000000000000000e+00  9.5248815758519678e-02  1.8747385622926094e-01  2.7667512175967851e-01  3.6285261268190344e-01  4.4600632931265832e-01  5.2613627195321888e-01  6.0324244088941625e-01  6.7732483639167484e-01  7.4838345871508360e-01  8.1641830809949334e-01  8.8142938476963650e-01  9.4341668893526331e-01  1.0023802207912931e+00  1.0583199805179713e+00  1.1112359682810327e+00  1.1611281842318633e+00  1.2079966285076587e+00  1.2518413012315723e+00  1.2926622025128562e+00  1.3304593324469851e+00  1.3652326911157604e+00  1.3969822785874018e+00  1.4257080949166074e+00  1.4514101401445998e+00  1.4740884142991391e+00  1.4937429173945167e+00  1.5103736494315181e+00  1.5239806103973659e+00  1.5345638002656281e+00  1.5421232189961134e+00  1.5466588665347349e+00  1.5481707428133591e+00  1.5466588477496335e+00  1.5421231812467995e+00  1.5345637431934975e+00  1.5239805334635608e+00  1.5103735519158050e+00  1.4937427983938267e+00  1.4740882727257991e+00  1.4514099747242895e+00  1.4257079041860863e+00  1.3969820608920580e+00  1.3652324446070374e+00  1.3304590550797439e+00  1.2926618920427528e+00  1.2518409552125063e+00  1.2079962442893915e+00  1.1611277589578715e+00  1.1112354988866919e+00  1.0583194637291604e+00  1.0023796531235043e+00  9.4341606669331912e-01  8.8142870404810159e-01  8.1641756478388483e-01  7.4838264848396574e-01  6.7732395471973772e-01  6.0324148305162639e-01  5.2613523303013088e-01  4.4600520419697109e-01  3.6285139608634209e-01  2.7667380822627230e-01  1.8747244014008541e-01  9.5247291347962379e-02  -1.6386314007845679e-06  </DataArray> 
</PointData> 
</Piece>
</UnstructuredGrid>
</VTKFile>