<?xml version="1.0"?>
<VTKFile type="UnstructuredGrid"  version="0.1"  >
<UnstructuredGrid>
<Piece  NumberOfPoints="65" NumberOfCells="64">
<Points>
<DataArray  type="Float64"  NumberOfComponents="3"  format="ascii">0 0 0  0.0625 0 0  0.125 0 0  0.1875 0 0  0.25 0 0  0.3125 0 0  0.375 0 0  0.4375 0 0  0.5 0 0  0.5625 0 0  0.625 0 0  0.6875 0 0  0.75 0 0  0.8125 0 0  0.875 0 0  0.9375 0 0  1 0 0  1.0625 0 0  1.125 0 0  1.1875 0 0  1.25 0 0  1.3125 0 0  1.375 0 0  1.4375 0 0  1.5 0 0  1.5625 0 0  1.625 0 0  1.6875 0 0  1.75 0 0  1.8125 0 0  1.875 0 0  1.9375 0 0  2 0 0  2.0625 0 0  2.125 0 0  2.1875 0 0  2.25 0 0  2.3125 0 0  2.375 0 0  2.4375 0 0  2.5 0 0  2.5625 0 0  2.625 0 0  2.6875 0 0  2.75 0 0  2.8125 0 0  2.875 0 0  2.9375 0 0  3 0 0  3.0625 0 0  3.125 0 0  3.1875 0 0  3.25 0 0  3.3125 0 0  3.375 0 0  3.4375 0 0  3.5 0 0  3.5625 0 0  3.625 0 0  3.6875 0 0  3.75 0 0  3.8125 0 0  3.875 0 0  3.9375 0 0  4 0 0  </DataArray>
</Points>
<Cells>
<DataArray  type="UInt32"  Name="connectivity"  format="ascii">0 1  1 2  2 3  3 4  4 5  5 6  6 7  7 8  8 9  9 10  10 11  11 12  12 13  13 14  14 15  15 16  16 17  17 18  18 19  19 20  20 21  21 22  22 23  23 24  24 25  25 26  26 27  27 28  28 29  29 30  30 31  31 32  32 33  33 34  34 35  35 36  36 37  37 38  38 39  39 40  40 41  41 42  42 43  43 44  44 45  45 46  46 47  47 48  48 49  49 50  50 51  51 52  52 53  53 54  54 55  55 56  56 57  57 58  58 59  59 60  60 61  61 62  62 63  63 64  </DataArray>
<DataArray  type="UInt32"  Name="offsets"  format="ascii">2 4 6 8 10 12 14 16 18 20 22 24 26 28 30 32 34 36 38 40 42 44 46 48 50 52 54 56 58 60 62 64 66 68 70 72 74 76 78 80 82 84 86 88 90 92 94 96 98 100 102 104 106 108 110 112 114 116 118 120 122 124 126 128 </DataArray>
<DataArray  type="UInt8"  Name="types"  format="ascii">3 3 3 3 3 3 3 3 3 3 3 3 3 3 3 3 3 3 3 3 3 3 3 3 3 3 3 3 3 3 3 3 3 3 3 3 3 3 3 3 3 3 3 3 3 3 3 3 3 3 3 3 3 3 3 3 3 3 3 3 3 3 3 3 </DataArray>
</Cells>
<PointData  Scalars="U"> 
<DataArray  type="Float64"  Name="U"  format="ascii">0.0000000000000000e+00  -7.1096271303895276e-03  -1.4758592909140975e-02  -2.2885990213630750e-02  -3.1427593540130236e-02  -4.0316867912763600e-02  -4.9485987097985164e-02  -5.8866774386739130e-02  -6.8391589294545474e-02  -7.7994134353216726e-02  -8.7610154714565999e-02  -9.7178031341445245e-02  -1.0663926251194254e-01  -1.1593883970968900e-01  -1.2502551730473754e-01  -1.3385198534431897e-01  -1.4237496325879193e-01  -1.5055521932289809e-01  -1.5835753131415919e-01  -1.6575060531774918e-01  -1.7270696175816036e-01  -1.7920280379812084e-01  -1.8521787902635847e-01  -1.9073534507330789e-01  -1.9574165091353501e-01  -2.0022643864830139e-01  -2.0418247586614183e-01  -2.0760562643167721e-01  -2.1049485997764714e-01  -2.1285230856611384e-01  -2.1468337468312562e-01  -2.1599688749601670e-01  -2.1680531311595200e-01  -2.1712501878114418e-01  -2.1697658453194871e-01  -2.1638516292671583e-01  -2.1538088043800996e-01  -2.1399926934337810e-01  -2.1228172109550508e-01  -2.1027594510390216e-01  -2.0803641527869357e-01  -2.0562477980441585e-01  -2.0311020515595549e-01  -2.0056963078674711e-01  -1.9808788941726982e-01  -1.9575765218837993e-01  -1.9367917395137493e-01  -1.9195977700267355e-01  -1.9071303304125095e-01  -1.9005762168336085e-01  -1.9011581765997221e-01  -1.9101159485479616e-01  -1.9286831945770511e-01  -1.9580607073340323e-01  -1.9993863593145067e-01  -2.0537014560866154e-01  -2.1219153284733289e-01  -2.2047691641467626e-01  -2.3027997811302009e-01  -2.4163054075413992e-01  -2.5453147973097545e-01  -2.6895623662759821e-01  -2.8484699897286919e-01  -3.0211371694079164e-01  -3.2063415563033848e-01  </DataArray> 
</PointData> 
</Piece>
</UnstructuredGrid>
</VTKFile>