<?xml version="1.0"?>
<VTKFile type="UnstructuredGrid"  version="0.1"  >
<UnstructuredGrid>
<Piece  NumberOfPoints="65" NumberOfCells="64">
<Points>
<DataArray  type="Float64"  NumberOfComponents="3"  format="ascii">0 0 0  0.0625 0 0  0.125 0 0  0.1875 0 0  0.25 0 0  0.3125 0 0  0.375 0 0  0.4375 0 0  0.5 0 0  0.5625 0 0  0.625 0 0  0.6875 0 0  0.75 0 0  0.8125 0 0  0.875 0 0  0.9375 0 0  1 0 0  1.0625 0 0  1.125 0 0  1.1875 0 0  1.25 0 0  1.3125 0 0  1.375 0 0  1.4375 0 0  1.5 0 0  1.5625 0 0  1.625 0 0  1.6875 0 0  1.75 0 0  1.8125 0 0  1.875 0 0  1.9375 0 0  2 0 0  2.0625 0 0  2.125 0 0  2.1875 0 0  2.25 0 0  2.3125 0 0  2.375 0 0  2.4375 0 0  2.5 0 0  2.5625 0 0  2.625 0 0  2.6875 0 0  2.75 0 0  2.8125 0 0  2.875 0 0  2.9375 0 0  3 0 0  3.0625 0 0  3.125 0 0  3.1875 0 0  3.25 0 0  3.3125 0 0  3.375 0 0  3.4375 0 0  3.5 0 0  3.5625 0 0  3.625 0 0  3.6875 0 0  3.75 0 0  3.8125 0 0  3.875 0 0  3.9375 0 0  4 0 0  </DataArray>
</Points>
<Cells>
<DataArray  type="UInt32"  Name="connectivity"  format="ascii">0 1  1 2  2 3  3 4  4 5  5 6  6 7  7 8  8 9  9 10  10 11  11 12  12 13  13 14  14 15  15 16  16 17  17 18  18 19  19 20  20 21  21 22  22 23  23 24  24 25  25 26  26 27  27 28  28 29  29 30  30 31  31 32  32 33  33 34  34 35  35 36  36 37  37 38  38 39  39 40  40 41  41 42  42 43  43 44  44 45  45 46  46 47  47 48  48 49  49 50  50 51  51 52  52 53  53 54  54 55  55 56  56 57  57 58  58 59  59 60  60 61  61 62  62 63  63 64  </DataArray>
<DataArray  type="UInt32"  Name="offsets"  format="ascii">2 4 6 8 10 12 14 16 18 20 22 24 26 28 30 32 34 36 38 40 42 44 46 48 50 52 54 56 58 60 62 64 66 68 70 72 74 76 78 80 82 84 86 88 90 92 94 96 98 100 102 104 106 108 110 112 114 116 118 120 122 124 126 128 </DataArray>
<DataArray  type="UInt8"  Name="types"  format="ascii">3 3 3 3 3 3 3 3 3 3 3 3 3 3 3 3 3 3 3 3 3 3 3 3 3 3 3 3 3 3 3 3 3 3 3 3 3 3 3 3 3 3 3 3 3 3 3 3 3 3 3 3 3 3 3 3 3 3 3 3 3 3 3 3 </DataArray>
</Cells>
<PointData  Scalars="ud"> 
<DataArray  type="Float64"  Name="ud"  format="ascii">0.0000000000000000e+00  1.1399804634169620e-01  2.2437710708524330e-01  3.3113718223064137e-01  4.3427827177789030e-01  5.3380037572699013e-01  6.2970349407794091e-01  7.2198762683074258e-01  8.1065277398539526e-01  8.9569893554189872e-01  9.7712611150025319e-01  1.0549343018604584e+00  1.1291235066225147e+00  1.1996937257864220e+00  1.2666449593521800e+00  1.3299772073197891e+00  1.3896904696892489e+00  1.4457847464605598e+00  1.4982600376337214e+00  1.5471163432087343e+00  1.5923536631855977e+00  1.6339719975643121e+00  1.6719713463448775e+00  1.7063517095272940e+00  1.7371130871115612e+00  1.7642554790976792e+00  1.7877788854856485e+00  1.8076833062754682e+00  1.8239687414671393e+00  1.8366351910606611e+00  1.8456826550560337e+00  1.8511111334532573e+00  1.8529206262523319e+00  1.8511111334532573e+00  1.8456826550560337e+00  1.8366351910606611e+00  1.8239687414671393e+00  1.8076833062754682e+00  1.7877788854856485e+00  1.7642554790976792e+00  1.7371130871115612e+00  1.7063517095272940e+00  1.6719713463448775e+00  1.6339719975643121e+00  1.5923536631855977e+00  1.5471163432087343e+00  1.4982600376337214e+00  1.4457847464605598e+00  1.3896904696892489e+00  1.3299772073197891e+00  1.2666449593521800e+00  1.1996937257864220e+00  1.1291235066225147e+00  1.0549343018604584e+00  9.7712611150025319e-01  8.9569893554189872e-01  8.1065277398539526e-01  7.2198762683074258e-01  6.2970349407794091e-01  5.3380037572699013e-01  4.3427827177789030e-01  3.3113718223064137e-01  2.2437710708524330e-01  1.1399804634169620e-01  0.0000000000000000e+00  </DataArray> 
</PointData> 
</Piece>
</UnstructuredGrid>
</VTKFile>