<?xml version="1.0"?>
<VTKFile type="UnstructuredGrid"  version="0.1"  >
<UnstructuredGrid>
<Piece  NumberOfPoints="65" NumberOfCells="64">
<Points>
<DataArray  type="Float64"  NumberOfComponents="3"  format="ascii">0 0 0  0.0625 0 0  0.125 0 0  0.1875 0 0  0.25 0 0  0.3125 0 0  0.375 0 0  0.4375 0 0  0.5 0 0  0.5625 0 0  0.625 0 0  0.6875 0 0  0.75 0 0  0.8125 0 0  0.875 0 0  0.9375 0 0  1 0 0  1.0625 0 0  1.125 0 0  1.1875 0 0  1.25 0 0  1.3125 0 0  1.375 0 0  1.4375 0 0  1.5 0 0  1.5625 0 0  1.625 0 0  1.6875 0 0  1.75 0 0  1.8125 0 0  1.875 0 0  1.9375 0 0  2 0 0  2.0625 0 0  2.125 0 0  2.1875 0 0  2.25 0 0  2.3125 0 0  2.375 0 0  2.4375 0 0  2.5 0 0  2.5625 0 0  2.625 0 0  2.6875 0 0  2.75 0 0  2.8125 0 0  2.875 0 0  2.9375 0 0  3 0 0  3.0625 0 0  3.125 0 0  3.1875 0 0  3.25 0 0  3.3125 0 0  3.375 0 0  3.4375 0 0  3.5 0 0  3.5625 0 0  3.625 0 0  3.6875 0 0  3.75 0 0  3.8125 0 0  3.875 0 0  3.9375 0 0  4 0 0  </DataArray>
</Points>
<Cells>
<DataArray  type="UInt32"  Name="connectivity"  format="ascii">0 1  1 2  2 3  3 4  4 5  5 6  6 7  7 8  8 9  9 10  10 11  11 12  12 13  13 14  14 15  15 16  16 17  17 18  18 19  19 20  20 21  21 22  22 23  23 24  24 25  25 26  26 27  27 28  28 29  29 30  30 31  31 32  32 33  33 34  34 35  35 36  36 37  37 38  38 39  39 40  40 41  41 42  42 43  43 44  44 45  45 46  46 47  47 48  48 49  49 50  50 51  51 52  52 53  53 54  54 55  55 56  56 57  57 58  58 59  59 60  60 61  61 62  62 63  63 64  </DataArray>
<DataArray  type="UInt32"  Name="offsets"  format="ascii">2 4 6 8 10 12 14 16 18 20 22 24 26 28 30 32 34 36 38 40 42 44 46 48 50 52 54 56 58 60 62 64 66 68 70 72 74 76 78 80 82 84 86 88 90 92 94 96 98 100 102 104 106 108 110 112 114 116 118 120 122 124 126 128 </DataArray>
<DataArray  type="UInt8"  Name="types"  format="ascii">3 3 3 3 3 3 3 3 3 3 3 3 3 3 3 3 3 3 3 3 3 3 3 3 3 3 3 3 3 3 3 3 3 3 3 3 3 3 3 3 3 3 3 3 3 3 3 3 3 3 3 3 3 3 3 3 3 3 3 3 3 3 3 3 </DataArray>
</Cells>
<PointData  Scalars="U"> 
<DataArray  type="Float64"  Name="U"  format="ascii">0.0000000000000000e+00  -5.3177026533851937e-02  -1.0784201143398464e-01  -1.6373832716353343e-01  -2.2060924441363908e-01  -2.7819980245117287e-01  -3.3625855746940503e-01  -3.9453918490471601e-01  -4.5280192298154487e-01  -5.1081485330179610e-01  -5.6835502064248922e-01  -6.2520939871003844e-01  -6.8117571178522862e-01  -7.3606312427726761e-01  -7.8969281143049952e-01  -8.4189842498961809e-01  -8.9252646768642274e-01  -9.4143659008953351e-01  -9.8850182275799203e-01  -1.0336087558386755e+00  -1.0766576773064833e+00  -1.1175626800112179e+00  -1.1562517465999325e+00  -1.1926668202523873e+00  -1.2267638680163935e+00  -1.2585129423689305e+00  -1.2878982454626136e+00  -1.3149181993457444e+00  -1.3395855242649359e+00  -1.3619273259667284e+00  -1.3819851917014125e+00  -1.3998152933897390e+00  -1.4154884951318469e+00  -1.4290904609077668e+00  -1.4407217569306161e+00  -1.4504979416582029e+00  -1.4585496349386347e+00  -1.4650225561551489e+00  -1.4700775195420865e+00  -1.4738903730688162e+00  -1.4766518654377108e+00  -1.4785674238285407e+00  -1.4798568230656575e+00  -1.4807537249172265e+00  -1.4815050643013690e+00  -1.4823702573323594e+00  -1.4836202044704316e+00  -1.4855360606451165e+00  -1.4884077432376295e+00  -1.4925321484021528e+00  -1.4982110465922462e+00  -1.5057486296036744e+00  -1.5154486842795765e+00  -1.5276113726566678e+00  -1.5425296052639452e+00  -1.5604850041322109e+00  -1.5817434655820000e+00  -1.6065503509383083e+00  -1.6351253570738533e+00  -1.6676571494383314e+00  -1.7042978795914321e+00  -1.7451577591482887e+00  -1.7902999247780507e+00  -1.8397359072356865e+00  -1.8934221146601546e+00  </DataArray> 
</PointData> 
</Piece>
</UnstructuredGrid>
</VTKFile>