<?xml version="1.0"?>
<VTKFile type="UnstructuredGrid"  version="0.1"  >
<UnstructuredGrid>
<Piece  NumberOfPoints="65" NumberOfCells="64">
<Points>
<DataArray  type="Float64"  NumberOfComponents="3"  format="ascii">0 0 0  0.0625 0 0  0.125 0 0  0.1875 0 0  0.25 0 0  0.3125 0 0  0.375 0 0  0.4375 0 0  0.5 0 0  0.5625 0 0  0.625 0 0  0.6875 0 0  0.75 0 0  0.8125 0 0  0.875 0 0  0.9375 0 0  1 0 0  1.0625 0 0  1.125 0 0  1.1875 0 0  1.25 0 0  1.3125 0 0  1.375 0 0  1.4375 0 0  1.5 0 0  1.5625 0 0  1.625 0 0  1.6875 0 0  1.75 0 0  1.8125 0 0  1.875 0 0  1.9375 0 0  2 0 0  2.0625 0 0  2.125 0 0  2.1875 0 0  2.25 0 0  2.3125 0 0  2.375 0 0  2.4375 0 0  2.5 0 0  2.5625 0 0  2.625 0 0  2.6875 0 0  2.75 0 0  2.8125 0 0  2.875 0 0  2.9375 0 0  3 0 0  3.0625 0 0  3.125 0 0  3.1875 0 0  3.25 0 0  3.3125 0 0  3.375 0 0  3.4375 0 0  3.5 0 0  3.5625 0 0  3.625 0 0  3.6875 0 0  3.75 0 0  3.8125 0 0  3.875 0 0  3.9375 0 0  4 0 0  </DataArray>
</Points>
<Cells>
<DataArray  type="UInt32"  Name="connectivity"  format="ascii">0 1  1 2  2 3  3 4  4 5  5 6  6 7  7 8  8 9  9 10  10 11  11 12  12 13  13 14  14 15  15 16  16 17  17 18  18 19  19 20  20 21  21 22  22 23  23 24  24 25  25 26  26 27  27 28  28 29  29 30  30 31  31 32  32 33  33 34  34 35  35 36  36 37  37 38  38 39  39 40  40 41  41 42  42 43  43 44  44 45  45 46  46 47  47 48  48 49  49 50  50 51  51 52  52 53  53 54  54 55  55 56  56 57  57 58  58 59  59 60  60 61  61 62  62 63  63 64  </DataArray>
<DataArray  type="UInt32"  Name="offsets"  format="ascii">2 4 6 8 10 12 14 16 18 20 22 24 26 28 30 32 34 36 38 40 42 44 46 48 50 52 54 56 58 60 62 64 66 68 70 72 74 76 78 80 82 84 86 88 90 92 94 96 98 100 102 104 106 108 110 112 114 116 118 120 122 124 126 128 </DataArray>
<DataArray  type="UInt8"  Name="types"  format="ascii">3 3 3 3 3 3 3 3 3 3 3 3 3 3 3 3 3 3 3 3 3 3 3 3 3 3 3 3 3 3 3 3 3 3 3 3 3 3 3 3 3 3 3 3 3 3 3 3 3 3 3 3 3 3 3 3 3 3 3 3 3 3 3 3 </DataArray>
</Cells>
<PointData  Scalars="U"> 
<DataArray  type="Float64"  Name="U"  format="ascii">0.0000000000000000e+00  9.5621609652786876e-02  1.8820760929470212e-01  2.7775799927333228e-01  3.6427277992088997e-01  4.4775195155413355e-01  5.2819551447433366e-01  6.0560346896727879e-01  6.7997581530332063e-01  7.5131255373744688e-01  8.1961368450938599e-01  8.8487920784372986e-01  9.4710912395007640e-01  1.0063034330231824e+00  1.0624621352431294e+00  1.1155852307754870e+00  1.1656727197714807e+00  1.2127246023681533e+00  1.2567408786885184e+00  1.2977215488417018e+00  1.3356666129230685e+00  1.3705760710143338e+00  1.4024499231836487e+00  1.4312881694856712e+00  1.4570908099616049e+00  1.4798578446392190e+00  1.4995892735328398e+00  1.5162850966433155e+00  1.5299453139579524e+00  1.5405699254504328e+00  1.5481589310806974e+00  1.5527123307948152e+00  1.5542301245248258e+00  1.5527123121885646e+00  1.5481588936894748e+00  1.5405698689164036e+00  1.5299452377433946e+00  1.5162850000294747e+00  1.4995891556184422e+00  1.4798577043386627e+00  1.4570906460028747e+00  1.4312879804080167e+00  1.4024497073350748e+00  1.3705758265489638e+00  1.3356663377984415e+00  1.2977212408160692e+00  1.2567405353182237e+00  1.2127242210051590e+00  1.1656722975611391e+00  1.1155847646546342e+00  1.0624616219385945e+00  1.0063028690508058e+00  9.4710850561432913e-01  8.8487853123803384e-01  8.1961294551722408e-01  7.5131174803436684e-01  6.7997493835992084e-01  6.0560251605327042e-01  5.2819448066376729e-01  4.4775083173187713e-01  3.6427156879043465e-01  2.7775669136600473e-01  1.8820619898034646e-01  9.5620091151979572e-02  -1.6326021529983906e-06  </DataArray> 
</PointData> 
</Piece>
</UnstructuredGrid>
</VTKFile>