<?xml version="1.0"?>
<VTKFile type="UnstructuredGrid"  version="0.1"  >
<UnstructuredGrid>
<Piece  NumberOfPoints="65" NumberOfCells="64">
<Points>
<DataArray  type="Float64"  NumberOfComponents="3"  format="ascii">0 0 0  0.0625 0 0  0.125 0 0  0.1875 0 0  0.25 0 0  0.3125 0 0  0.375 0 0  0.4375 0 0  0.5 0 0  0.5625 0 0  0.625 0 0  0.6875 0 0  0.75 0 0  0.8125 0 0  0.875 0 0  0.9375 0 0  1 0 0  1.0625 0 0  1.125 0 0  1.1875 0 0  1.25 0 0  1.3125 0 0  1.375 0 0  1.4375 0 0  1.5 0 0  1.5625 0 0  1.625 0 0  1.6875 0 0  1.75 0 0  1.8125 0 0  1.875 0 0  1.9375 0 0  2 0 0  2.0625 0 0  2.125 0 0  2.1875 0 0  2.25 0 0  2.3125 0 0  2.375 0 0  2.4375 0 0  2.5 0 0  2.5625 0 0  2.625 0 0  2.6875 0 0  2.75 0 0  2.8125 0 0  2.875 0 0  2.9375 0 0  3 0 0  3.0625 0 0  3.125 0 0  3.1875 0 0  3.25 0 0  3.3125 0 0  3.375 0 0  3.4375 0 0  3.5 0 0  3.5625 0 0  3.625 0 0  3.6875 0 0  3.75 0 0  3.8125 0 0  3.875 0 0  3.9375 0 0  4 0 0  </DataArray>
</Points>
<Cells>
<DataArray  type="UInt32"  Name="connectivity"  format="ascii">0 1  1 2  2 3  3 4  4 5  5 6  6 7  7 8  8 9  9 10  10 11  11 12  12 13  13 14  14 15  15 16  16 17  17 18  18 19  19 20  20 21  21 22  22 23  23 24  24 25  25 26  26 27  27 28  28 29  29 30  30 31  31 32  32 33  33 34  34 35  35 36  36 37  37 38  38 39  39 40  40 41  41 42  42 43  43 44  44 45  45 46  46 47  47 48  48 49  49 50  50 51  51 52  52 53  53 54  54 55  55 56  56 57  57 58  58 59  59 60  60 61  61 62  62 63  63 64  </DataArray>
<DataArray  type="UInt32"  Name="offsets"  format="ascii">2 4 6 8 10 12 14 16 18 20 22 24 26 28 30 32 34 36 38 40 42 44 46 48 50 52 54 56 58 60 62 64 66 68 70 72 74 76 78 80 82 84 86 88 90 92 94 96 98 100 102 104 106 108 110 112 114 116 118 120 122 124 126 128 </DataArray>
<DataArray  type="UInt8"  Name="types"  format="ascii">3 3 3 3 3 3 3 3 3 3 3 3 3 3 3 3 3 3 3 3 3 3 3 3 3 3 3 3 3 3 3 3 3 3 3 3 3 3 3 3 3 3 3 3 3 3 3 3 3 3 3 3 3 3 3 3 3 3 3 3 3 3 3 3 </DataArray>
</Cells>
<PointData  Scalars="U"> 
<DataArray  type="Float64"  Name="U"  format="ascii">0.0000000000000000e+00  -5.9028497292150851e-02  -1.2056566030766021e-01  -1.8422513913544350e-01  -2.4962379628388812e-01  -3.1638332053286961e-01  -3.8413179748954129e-01  -4.5250522402850923e-01  -5.2114895530847294e-01  -5.8971907485985209e-01  -6.5788368027620825e-01  -7.2532407925380793e-01  -7.9173589304011915e-01  -8.5683006670116824e-01  -9.2033378792533649e-01  -9.8199131827321551e-01  -1.0415647427873485e+00  -1.0988346456237039e+00  -1.1536007207957868e+00  -1.2056823281768430e+00  -1.2549190055388804e+00  -1.3011709475825592e+00  -1.3443194626039736e+00  -1.3842674166399827e+00  -1.4209396736330875e+00  -1.4542835383739410e+00  -1.4842692067426371e+00  -1.5108902251217788e+00  -1.5341639578522908e+00  -1.5541320583184830e+00  -1.5708609357670742e+00  -1.5844422063831562e+00  -1.5949931135729092e+00  -1.6026568989557213e+00  -1.6076031023711506e+00  -1.6100277663864815e+00  -1.6101535184759965e+00  -1.6082295023573021e+00  -1.6045311290286191e+00  -1.5993596179567626e+00  -1.5930412997039833e+00  -1.5859266531163310e+00  -1.5783890530637195e+00  -1.5708232086292051e+00  -1.5636432765654591e+00  -1.5572806407078779e+00  -1.5521813547573671e+00  -1.5488032532865128e+00  -1.5476127438109959e+00  -1.5490813011029412e+00  -1.5536816933773485e+00  -1.5618839783097180e+00  -1.5741513147830750e+00  -1.5909356435526847e+00  -1.6126732963996293e+00  -1.6397805985784353e+00  -1.6726495332329994e+00  -1.7116435387777666e+00  -1.7570935108793513e+00  -1.8092940795395402e+00  -1.8685002288414381e+00  -1.9349243222026102e+00  -2.0087335895682825e+00  -2.0900481250179954e+00  -2.1789394339487282e+00  </DataArray> 
</PointData> 
</Piece>
</UnstructuredGrid>
</VTKFile>