<?xml version="1.0"?>
<VTKFile type="UnstructuredGrid"  version="0.1"  >
<UnstructuredGrid>
<Piece  NumberOfPoints="65" NumberOfCells="64">
<Points>
<DataArray  type="Float64"  NumberOfComponents="3"  format="ascii">0 0 0  0.0625 0 0  0.125 0 0  0.1875 0 0  0.25 0 0  0.3125 0 0  0.375 0 0  0.4375 0 0  0.5 0 0  0.5625 0 0  0.625 0 0  0.6875 0 0  0.75 0 0  0.8125 0 0  0.875 0 0  0.9375 0 0  1 0 0  1.0625 0 0  1.125 0 0  1.1875 0 0  1.25 0 0  1.3125 0 0  1.375 0 0  1.4375 0 0  1.5 0 0  1.5625 0 0  1.625 0 0  1.6875 0 0  1.75 0 0  1.8125 0 0  1.875 0 0  1.9375 0 0  2 0 0  2.0625 0 0  2.125 0 0  2.1875 0 0  2.25 0 0  2.3125 0 0  2.375 0 0  2.4375 0 0  2.5 0 0  2.5625 0 0  2.625 0 0  2.6875 0 0  2.75 0 0  2.8125 0 0  2.875 0 0  2.9375 0 0  3 0 0  3.0625 0 0  3.125 0 0  3.1875 0 0  3.25 0 0  3.3125 0 0  3.375 0 0  3.4375 0 0  3.5 0 0  3.5625 0 0  3.625 0 0  3.6875 0 0  3.75 0 0  3.8125 0 0  3.875 0 0  3.9375 0 0  4 0 0  </DataArray>
</Points>
<Cells>
<DataArray  type="UInt32"  Name="connectivity"  format="ascii">0 1  1 2  2 3  3 4  4 5  5 6  6 7  7 8  8 9  9 10  10 11  11 12  12 13  13 14  14 15  15 16  16 17  17 18  18 19  19 20  20 21  21 22  22 23  23 24  24 25  25 26  26 27  27 28  28 29  29 30  30 31  31 32  32 33  33 34  34 35  35 36  36 37  37 38  38 39  39 40  40 41  41 42  42 43  43 44  44 45  45 46  46 47  47 48  48 49  49 50  50 51  51 52  52 53  53 54  54 55  55 56  56 57  57 58  58 59  59 60  60 61  61 62  62 63  63 64  </DataArray>
<DataArray  type="UInt32"  Name="offsets"  format="ascii">2 4 6 8 10 12 14 16 18 20 22 24 26 28 30 32 34 36 38 40 42 44 46 48 50 52 54 56 58 60 62 64 66 68 70 72 74 76 78 80 82 84 86 88 90 92 94 96 98 100 102 104 106 108 110 112 114 116 118 120 122 124 126 128 </DataArray>
<DataArray  type="UInt8"  Name="types"  format="ascii">3 3 3 3 3 3 3 3 3 3 3 3 3 3 3 3 3 3 3 3 3 3 3 3 3 3 3 3 3 3 3 3 3 3 3 3 3 3 3 3 3 3 3 3 3 3 3 3 3 3 3 3 3 3 3 3 3 3 3 3 3 3 3 3 </DataArray>
</Cells>
<PointData  Scalars="U"> 
<DataArray  type="Float64"  Name="U"  format="ascii">0.0000000000000000e+00  1.6521944914105227e-01  3.2519383423317305e-01  4.7992315558003051e-01  6.2940741346111195e-01  7.7364660813275987e-01  9.1264073982926630e-01  1.0463898087640127e+00  1.1748938151306405e+00  1.2981527591042394e+00  1.4161666408425413e+00  1.5289354604871073e+00  1.6364592181644964e+00  1.7387379139874095e+00  1.8357715480557921e+00  1.9275601204578967e+00  2.0141036312712890e+00  2.0954020805638036e+00  2.1714554683944214e+00  2.2422637948140993e+00  2.3078270598665060e+00  2.3681452635886999e+00  2.4232184060117161e+00  2.4730464871610800e+00  2.5176295070572312e+00  2.5569674657158687e+00  2.5910603631481965e+00  2.6199081993610904e+00  2.6435109743571616e+00  2.6618686881347329e+00  2.6749813406877014e+00  2.6828489320053173e+00  2.6854714620718401e+00  2.6828489308660948e+00  2.6749813383609147e+00  2.6618686845224624e+00  2.6435109693094407e+00  2.6199081926721823e+00  2.5910603545516095e+00  2.5569674548780852e+00  2.5176294935701424e+00  2.4730464705330877e+00  2.4232183856575156e+00  2.3681452388177022e+00  2.3078270298699199e+00  2.2422637586506724e+00  2.1714554249748668e+00  2.0954020286339463e+00  2.0141035693940088e+00  1.9275600469939251e+00  1.8357714611434974e+00  1.7387378115216860e+00  1.6364590977749334e+00  1.5289353195156221e+00  1.4161664763207089e+00  1.2981525677305634e+00  1.1748935932480542e+00  1.0463895523379148e+00  9.1264044442642800e-01  7.7364626890145660e-01  6.2940702511285473e-01  4.7992271237327983e-01  3.2519332995942901e-01  1.6521887711371688e-01  -6.4695359926375667e-07  </DataArray> 
</PointData> 
</Piece>
</UnstructuredGrid>
</VTKFile>