<?xml version="1.0"?>
<VTKFile type="UnstructuredGrid"  version="0.1"  >
<UnstructuredGrid>
<Piece  NumberOfPoints="65" NumberOfCells="64">
<Points>
<DataArray  type="Float64"  NumberOfComponents="3"  format="ascii">0 0 0  0.0625 0 0  0.125 0 0  0.1875 0 0  0.25 0 0  0.3125 0 0  0.375 0 0  0.4375 0 0  0.5 0 0  0.5625 0 0  0.625 0 0  0.6875 0 0  0.75 0 0  0.8125 0 0  0.875 0 0  0.9375 0 0  1 0 0  1.0625 0 0  1.125 0 0  1.1875 0 0  1.25 0 0  1.3125 0 0  1.375 0 0  1.4375 0 0  1.5 0 0  1.5625 0 0  1.625 0 0  1.6875 0 0  1.75 0 0  1.8125 0 0  1.875 0 0  1.9375 0 0  2 0 0  2.0625 0 0  2.125 0 0  2.1875 0 0  2.25 0 0  2.3125 0 0  2.375 0 0  2.4375 0 0  2.5 0 0  2.5625 0 0  2.625 0 0  2.6875 0 0  2.75 0 0  2.8125 0 0  2.875 0 0  2.9375 0 0  3 0 0  3.0625 0 0  3.125 0 0  3.1875 0 0  3.25 0 0  3.3125 0 0  3.375 0 0  3.4375 0 0  3.5 0 0  3.5625 0 0  3.625 0 0  3.6875 0 0  3.75 0 0  3.8125 0 0  3.875 0 0  3.9375 0 0  4 0 0  </DataArray>
</Points>
<Cells>
<DataArray  type="UInt32"  Name="connectivity"  format="ascii">0 1  1 2  2 3  3 4  4 5  5 6  6 7  7 8  8 9  9 10  10 11  11 12  12 13  13 14  14 15  15 16  16 17  17 18  18 19  19 20  20 21  21 22  22 23  23 24  24 25  25 26  26 27  27 28  28 29  29 30  30 31  31 32  32 33  33 34  34 35  35 36  36 37  37 38  38 39  39 40  40 41  41 42  42 43  43 44  44 45  45 46  46 47  47 48  48 49  49 50  50 51  51 52  52 53  53 54  54 55  55 56  56 57  57 58  58 59  59 60  60 61  61 62  62 63  63 64  </DataArray>
<DataArray  type="UInt32"  Name="offsets"  format="ascii">2 4 6 8 10 12 14 16 18 20 22 24 26 28 30 32 34 36 38 40 42 44 46 48 50 52 54 56 58 60 62 64 66 68 70 72 74 76 78 80 82 84 86 88 90 92 94 96 98 100 102 104 106 108 110 112 114 116 118 120 122 124 126 128 </DataArray>
<DataArray  type="UInt8"  Name="types"  format="ascii">3 3 3 3 3 3 3 3 3 3 3 3 3 3 3 3 3 3 3 3 3 3 3 3 3 3 3 3 3 3 3 3 3 3 3 3 3 3 3 3 3 3 3 3 3 3 3 3 3 3 3 3 3 3 3 3 3 3 3 3 3 3 3 3 </DataArray>
</Cells>
<PointData  Scalars="U"> 
<DataArray  type="Float64"  Name="U"  format="ascii">0.0000000000000000e+00  -7.5834820537663800e-02  -1.5280082584406032e-01  -2.3062951080435726e-01  -3.0905442399170607e-01  -3.8781220766522412e-01  -4.6664362766344158e-01  -5.4529458975770695e-01  -6.2351713906652617e-01  -7.0107043917404877e-01  -7.7772172764152570e-01  -8.5324724464692792e-01  -9.2743313153239315e-01  -1.0000762960791332e+00  -1.0709852413625836e+00  -1.1399808550648984e+00  -1.2068971561359818e+00  -1.2715819956973131e+00  -1.3338977090749118e+00  -1.3937217158297619e+00  -1.4509470646277560e+00  -1.5054829197595287e+00  -1.5572549860873051e+00  -1.6062058691658092e+00  -1.6522953672631309e+00  -1.6955006920016189e+00  -1.7358166143555407e+00  -1.7732555327889439e+00  -1.8078474604017571e+00  -1.8396399280825164e+00  -1.8686978008498376e+00  -1.8951030048090549e+00  -1.9189541624616115e+00  -1.9403661344882563e+00  -1.9594694665868042e+00  -1.9764097404837040e+00  -1.9913468288566250e+00  -2.0044540546014757e+00  -2.0159172556484255e+00  -2.0259337573720901e+00  -2.0347112555433786e+00  -2.0424666137246685e+00  -2.0494245800040227e+00  -2.0558164289840852e+00  -2.0618785359714296e+00  -2.0678508913352953e+00  -2.0739755640025219e+00  -2.0804951240089231e+00  -2.0876510349168993e+00  -2.0956820277153181e+00  -2.1048224685216894e+00  -2.1153007329905962e+00  -2.1273376007796734e+00  -2.1411446837207264e+00  -2.1569229014765350e+00  -2.1748610184240085e+00  -2.1951342552851125e+00  -2.2179029886250263e+00  -2.2433115507525407e+00  -2.2714871417943674e+00  -2.3025388647800051e+00  -2.3365568934778245e+00  -2.3736117814799598e+00  -2.4137539196605329e+00  -2.4570131476484303e+00  </DataArray> 
</PointData> 
</Piece>
</UnstructuredGrid>
</VTKFile>