<?xml version="1.0"?>
<VTKFile type="UnstructuredGrid"  version="0.1"  >
<UnstructuredGrid>
<Piece  NumberOfPoints="65" NumberOfCells="64">
<Points>
<DataArray  type="Float64"  NumberOfComponents="3"  format="ascii">0 0 0  0.0625 0 0  0.125 0 0  0.1875 0 0  0.25 0 0  0.3125 0 0  0.375 0 0  0.4375 0 0  0.5 0 0  0.5625 0 0  0.625 0 0  0.6875 0 0  0.75 0 0  0.8125 0 0  0.875 0 0  0.9375 0 0  1 0 0  1.0625 0 0  1.125 0 0  1.1875 0 0  1.25 0 0  1.3125 0 0  1.375 0 0  1.4375 0 0  1.5 0 0  1.5625 0 0  1.625 0 0  1.6875 0 0  1.75 0 0  1.8125 0 0  1.875 0 0  1.9375 0 0  2 0 0  2.0625 0 0  2.125 0 0  2.1875 0 0  2.25 0 0  2.3125 0 0  2.375 0 0  2.4375 0 0  2.5 0 0  2.5625 0 0  2.625 0 0  2.6875 0 0  2.75 0 0  2.8125 0 0  2.875 0 0  2.9375 0 0  3 0 0  3.0625 0 0  3.125 0 0  3.1875 0 0  3.25 0 0  3.3125 0 0  3.375 0 0  3.4375 0 0  3.5 0 0  3.5625 0 0  3.625 0 0  3.6875 0 0  3.75 0 0  3.8125 0 0  3.875 0 0  3.9375 0 0  4 0 0  </DataArray>
</Points>
<Cells>
<DataArray  type="UInt32"  Name="connectivity"  format="ascii">0 1  1 2  2 3  3 4  4 5  5 6  6 7  7 8  8 9  9 10  10 11  11 12  12 13  13 14  14 15  15 16  16 17  17 18  18 19  19 20  20 21  21 22  22 23  23 24  24 25  25 26  26 27  27 28  28 29  29 30  30 31  31 32  32 33  33 34  34 35  35 36  36 37  37 38  38 39  39 40  40 41  41 42  42 43  43 44  44 45  45 46  46 47  47 48  48 49  49 50  50 51  51 52  52 53  53 54  54 55  55 56  56 57  57 58  58 59  59 60  60 61  61 62  62 63  63 64  </DataArray>
<DataArray  type="UInt32"  Name="offsets"  format="ascii">2 4 6 8 10 12 14 16 18 20 22 24 26 28 30 32 34 36 38 40 42 44 46 48 50 52 54 56 58 60 62 64 66 68 70 72 74 76 78 80 82 84 86 88 90 92 94 96 98 100 102 104 106 108 110 112 114 116 118 120 122 124 126 128 </DataArray>
<DataArray  type="UInt8"  Name="types"  format="ascii">3 3 3 3 3 3 3 3 3 3 3 3 3 3 3 3 3 3 3 3 3 3 3 3 3 3 3 3 3 3 3 3 3 3 3 3 3 3 3 3 3 3 3 3 3 3 3 3 3 3 3 3 3 3 3 3 3 3 3 3 3 3 3 3 </DataArray>
</Cells>
<PointData  Scalars="U"> 
<DataArray  type="Float64"  Name="U"  format="ascii">0.0000000000000000e+00  -2.9313581608444297e-02  -6.2847347158589542e-02  -1.0005016166782175e-01  -1.4037961205827018e-01  -1.8330617369209798e-01  -2.2831706760938772e-01  -2.7491972483985372e-01  -3.2264478972145699e-01  -3.7104861191926225e-01  -4.1971519585615680e-01  -4.6825759558131463e-01  -5.1631876179378733e-01  -5.6357186499012757e-01  -6.0972013384802282e-01  -6.5449626050579823e-01  -6.9766143406256698e-01  -7.3900407031809157e-01  -7.7833830959392580e-01  -8.1550235568739526e-01  -8.5035672799146722e-01  -8.8278249603384285e-01  -9.1267956165391906e-01  -9.3996504924832813e-01  -9.6457185943130963e-01  -9.8644743645193933e-01  -1.0055527950546537e+00  -1.0218618483018991e+00  -1.0353610741959209e+00  -1.0460495555927347e+00  -1.0539394246062013e+00  -1.0590567390372387e+00  -1.0614428138111334e+00  -1.0611560243710547e+00  -1.0582740908347446e+00  -1.0528968408729291e+00  -1.0451494351948263e+00  -1.0351860218627207e+00  -1.0231937642624431e+00  -1.0093971625836924e+00  -9.9406256062701936e-01  -9.7750269957540026e-01  -9.6008114940531664e-01  -9.4221641865177586e-01  -9.2438551645413380e-01  -9.0712671965809344e-01  -8.9104128485174972e-01  -8.7679384315978359e-01  -8.6511122675167118e-01  -8.5677950218828336e-01  -8.5263902805083103e-01  -8.5357741291822631e-01  -8.6052032369271603e-01  -8.7442018127892429e-01  -8.9624287719730944e-01  -9.2695274619762402e-01  -9.6749613072627427e-01  -1.0187839669758094e+00  -1.0816739027992637e+00  -1.1569525189010554e+00  -1.2453182611248366e+00  -1.3473656993489314e+00  -1.4635717051814092e+00  -1.5942840860277192e+00  -1.7397131290258603e+00  </DataArray> 
</PointData> 
</Piece>
</UnstructuredGrid>
</VTKFile>