<?xml version="1.0"?>
<VTKFile type="UnstructuredGrid"  version="0.1"  >
<UnstructuredGrid>
<Piece  NumberOfPoints="65" NumberOfCells="64">
<Points>
<DataArray  type="Float64"  NumberOfComponents="3"  format="ascii">0 0 0  0.0625 0 0  0.125 0 0  0.1875 0 0  0.25 0 0  0.3125 0 0  0.375 0 0  0.4375 0 0  0.5 0 0  0.5625 0 0  0.625 0 0  0.6875 0 0  0.75 0 0  0.8125 0 0  0.875 0 0  0.9375 0 0  1 0 0  1.0625 0 0  1.125 0 0  1.1875 0 0  1.25 0 0  1.3125 0 0  1.375 0 0  1.4375 0 0  1.5 0 0  1.5625 0 0  1.625 0 0  1.6875 0 0  1.75 0 0  1.8125 0 0  1.875 0 0  1.9375 0 0  2 0 0  2.0625 0 0  2.125 0 0  2.1875 0 0  2.25 0 0  2.3125 0 0  2.375 0 0  2.4375 0 0  2.5 0 0  2.5625 0 0  2.625 0 0  2.6875 0 0  2.75 0 0  2.8125 0 0  2.875 0 0  2.9375 0 0  3 0 0  3.0625 0 0  3.125 0 0  3.1875 0 0  3.25 0 0  3.3125 0 0  3.375 0 0  3.4375 0 0  3.5 0 0  3.5625 0 0  3.625 0 0  3.6875 0 0  3.75 0 0  3.8125 0 0  3.875 0 0  3.9375 0 0  4 0 0  </DataArray>
</Points>
<Cells>
<DataArray  type="UInt32"  Name="connectivity"  format="ascii">0 1  1 2  2 3  3 4  4 5  5 6  6 7  7 8  8 9  9 10  10 11  11 12  12 13  13 14  14 15  15 16  16 17  17 18  18 19  19 20  20 21  21 22  22 23  23 24  24 25  25 26  26 27  27 28  28 29  29 30  30 31  31 32  32 33  33 34  34 35  35 36  36 37  37 38  38 39  39 40  40 41  41 42  42 43  43 44  44 45  45 46  46 47  47 48  48 49  49 50  50 51  51 52  52 53  53 54  54 55  55 56  56 57  57 58  58 59  59 60  60 61  61 62  62 63  63 64  </DataArray>
<DataArray  type="UInt32"  Name="offsets"  format="ascii">2 4 6 8 10 12 14 16 18 20 22 24 26 28 30 32 34 36 38 40 42 44 46 48 50 52 54 56 58 60 62 64 66 68 70 72 74 76 78 80 82 84 86 88 90 92 94 96 98 100 102 104 106 108 110 112 114 116 118 120 122 124 126 128 </DataArray>
<DataArray  type="UInt8"  Name="types"  format="ascii">3 3 3 3 3 3 3 3 3 3 3 3 3 3 3 3 3 3 3 3 3 3 3 3 3 3 3 3 3 3 3 3 3 3 3 3 3 3 3 3 3 3 3 3 3 3 3 3 3 3 3 3 3 3 3 3 3 3 3 3 3 3 3 3 </DataArray>
</Cells>
<PointData  Scalars="U"> 
<DataArray  type="Float64"  Name="U"  format="ascii">0.0000000000000000e+00  1.2667810227106188e-01  2.4933467454876185e-01  3.6796971717651661e-01  4.8258323047828156e-01  5.9317521475889445e-01  6.9974567030447343e-01  8.0229459738286546e-01  9.0082199624413428e-01  9.9532786712108134e-01  1.0858122102297934e+00  1.1722750257702057e+00  1.2547163139266770e+00  1.3331360748685668e+00  1.4075343087508052e+00  1.4779110157144582e+00  1.5442661958872641e+00  1.6065998493841578e+00  1.6649119763077529e+00  1.7192025767487942e+00  1.7694716507865658e+00  1.8157191984892511e+00  1.8579452199142450e+00  1.8961497151084059e+00  1.9303326841082535e+00  1.9604941269400988e+00  1.9866340436201153e+00  2.0087524341543368e+00  2.0268492985385960e+00  2.0409246367583829e+00  2.0509784487886438e+00  2.0570107345935078e+00  2.0590214941259464e+00  2.0570107273273668e+00  2.0509784341271491e+00  2.0409246144421149e+00  2.0268492681759542e+00  2.0087523952185915e+00  1.9866339954455228e+00  1.9604940687171035e+00  1.9303326148778224e+00  1.8961496337555512e+00  1.8579451251607848e+00  1.8157190888858874e+00  1.7694715247043518e+00  1.7192024323700825e+00  1.6649118116167183e+00  1.6065996621570064e+00  1.5442659836822408e+00  1.4779107758617807e+00  1.4075340383426569e+00  1.3331357707492921e+00  1.2547159726833310e+00  1.1722746437236127e+00  1.0858117834262802e+00  9.9532739132505521e-01  9.0082146693167342e-01  8.0229400973650455e-01  6.9974501920935428e-01  5.9317449480046236e-01  4.8258243594169958e-01  3.6796884204796643e-01  2.4933371251879755e-01  1.2667704674017136e-01  -1.1559134801793840e-06  </DataArray> 
</PointData> 
</Piece>
</UnstructuredGrid>
</VTKFile>