<?xml version="1.0"?>
<VTKFile type="UnstructuredGrid"  version="0.1"  >
<UnstructuredGrid>
<Piece  NumberOfPoints="335" NumberOfCells="604">
<Points>
<DataArray  type="Float64"  NumberOfComponents="3"  format="ascii">0 2 0  0 0 0  4 0 0  4 2 0  2 0 0  2 2 0  1 0 0  1 2 0  0 1 0  4 1 0  3 2 0  3 0 0  1.5 1 0  3 1 0  0.75 0.75 0  2.25 1.25 0  0.5625 1.4375 0  4 0.5 0  3.5 0 0  4 1.5 0  3.5 2 0  2.5 0 0  2.035714285714286 0.6428571428571428 0  1.5 0 0  3.416666666666667 0.5833333333333334 0  1.135869565217391 1.442934782608696 0  1.75 1.5 0  2.611201298701299 0.5693993506493507 0  3.5 1.25 0  1.25 0.5 0  2.5 2 0  2.75 1.5 0  0.5 0 0  0 0.5 0  0 1.5 0  0.5 2 0  1.5 2 0  3.196428571428572 1.589285714285714 0  1.75 0.3363095238095237 0  3.016488529250673 0.4286986695828525 0  1.075849239304906 1.022452282085282 0  2.25 0.308531746031746 0  0.4375 0.4375 0  2.375 1.625 0  0.359375 0.828125 0  0.875 0.375 0  2.579589900409902 0.9887697012297049 0  1.875 1.125 0  3.625 1.625 0  3.738095238095238 0.75 0  0.61328125 1.08203125 0  0.283203125 1.216238839285714 0  0.75 1.743055555555556 0  1.575774875167458 0.6496125624162709 0  0.30625 1.69375 0  3.677083333333333 0.3229166666666667 0  3.347222222222222 0.9305555555555556 0  2.75 0 0  1.426285733982903 1.650642866991451 0  1.441247178754399 1.322840772184865 0  3.307719501506081 0.2701504049770592 0  2.343107299193003 0.7600674782727458 0  2.041666666666667 1.666666666666667 0  0.8721051282065269 1.266059980878688 0  3.017857142857143 1.321428571428571 0  0.25 0 0  3.124094139334942 0.7176929188969303 0  2.133642051592332 0.9740738452230051 0  2.744869578259833 0.3003660856503637 0  2.795144003253926 0.7941412087465988 0  1.143043947544775 1.739786699825343 0  1.808516825619384 0.8349817990159853 0  2.006944444444445 1.388888888888889 0  2.545410099590098 1.284179800819803 0  2.625 1.75 0  1.049150760695094 0.7233015213901878 0  1.458640484663616 0.2918202423318081 0  2.938492063492064 1.718253968253968 0  1.75 2 0  1.125 0.25 0  3.708891369047619 1.042782738095238 0  3.75 1.375 0  0 0.25 0  2.785310692237909 1.162254590955012 0  1.323940624311342 0.7684841149566988 0  2.25 2 0  0.75 0 0  0.6335227272727273 0.2471590909090909 0  4 1.75 0  3.75 2 0  3.210459183673469 1.149518140589569 0  3.398166023166023 1.757722007722008 0  1.996445105820106 0.2584325396825397 0  2.75 2 0  1.25 2 0  3.25 0 0  3.75 0 0  1.25 0 0  0.75 2 0  0 1.25 0  4 0.75 0  0 0.75 0  2.25 0 0  1.75 0 0  0.25 2 0  0 1.75 0  4 0.25 0  1.669430850940762 1.75 0  4 1.25 0  3.25 2 0  2.498111965552158 0.3454883412923062 0  0.8003899450697071 1.501828266030458 0  0.2153532608695652 0.625 0  0.2412533945605322 1.457575279565611 0  1.678090669413954 1.267696889804651 0  0.2053571428571428 0.375 0  0.375 0.2050382653061225 0  1.294175302171828 1.12930909293974 0  0.835161298469517 0.9792300199580364 0  2.249446885750175 0.544013092708228 0  1.805072998422435 0.6005105219729567 0  3.420918367346939 1.48469387755102 0  0.5222222222222223 1.771527777777778 0  2.354573390699718 1.043404315840394 0  0.671875 0.515625 0  0.53515625 0.69140625 0  2.214583333333334 1.470138888888889 0  3.231892178836853 1.372190928394479 0  3.639880952380952 0.5461309523809526 0  3.51660541173964 0.7838766379034835 0  3.210840504937081 0.5208629907674649 0  2.950588740601899 0.2165668709345833 0  2.815233623969196 0.5030491785795254 0  1.083528949974407 1.235881015826932 0  2.585211668467502 0.778316879153453 0  3.143120343375446 1.805089893100097 0  0.9896521505025003 1.594981251830706 0  1.87957996989704 1.815676662903797 0  1.626600058535864 0.1681547619047618 0  2.953373015873016 1.514880952380952 0  0.2220850766736066 1.002711978499359 0  0.4224260205797096 1.01898022942029 0  0.5986328125 0.8818359375 0  2.375 0.154265873015873 0  0.8212256493506493 0.1845914502164502 0  3.8125 1.5625 0  3.78125 1.78125 0  1.0625 0.4375 0  0.8671875 0.5807291666666666 0  2.4375 1.8125 0  2.22275641025641 1.78525641025641 0  2.539794950204951 1.494384850614852 0  2.059027777777778 1.197916666666667 0  1.704515975736352 1.011452072790943 0  0.9470212454254227 1.801453052498988 0  1.918017502100738 0.4391265981339625 0  1.375 1.84391955596417 0  2.594123205043675 0.1732636966881334 0  1.611497372532367 0.8407251842095733 0  3.586538895025134 1.821085722175172 0  2.384120800622756 1.384496213629809 0  3.508505519670329 1.049676104119021 0  0.1820540335558793 0.1820974550765656 0  1.450689899973606 0.4924930565216958 0  2.969389279592704 0.610766185970977 0  3.479636682219977 0.3858866822199769 0  3.484790611891776 0.1926780268286212 0  3.125 0.1424398309976598 0  3.858534946236559 0.375 0  3.815049380551659 0.1843794300170415 0  2.8153725923641 0.9788695978190264 0  0.1761290113871636 0.8054315476190477 0  3.824210042675814 0.5563956403663389 0  2.427629910979513 0.5950983296204954 0  0.4637895652744943 1.595039565274494 0  0.1353316326530613 1.625 0  3.869047619047619 0.875 0  1.249564973844784 0.9439888838553999 0  2.125 0.1309601694653478 0  0.6730905143458559 1.271937037763694 0  0.4758841466846654 1.259926649442542 0  1.375 0.1311248731373872 0  0.6473533488434536 1.595737086442022 0  1.662034256815698 0.4924865966265944 0  3.869672512075917 1.125 0  1.832390038253737 0.1681547619047619 0  1.251129743036335 1.588661803950864 0  1.593890444587146 1.587672319401741 0  2.09822870286213 0.4099774202448945 0  0.3672041804298913 1.863236482119776 0  3.175675638845282 0.9756004164486307 0  3.312917483130068 0.7431390521815694 0  1.949346764610204 0.9553275675867292 0  0 1.875 0  0.125 2 0  0.1697704081632653 1.8125 0  1.250217015798098 1.303886758833925 0  1.835950419976561 1.346112776751352 0  0.9599823676558117 1.420119779128127 0  3.593112244897959 1.45280612244898 0  2.056540224487935 0.8167847786318049 0  1.813391518603679 1.658412378406144 0  2.717540968022779 1.325887924832463 0  2.875 2 0  2.790782176324345 1.823358911837828 0  2.96559571976349 0.7816340462561718 0  1.291066125893253 0.2769264367112843 0  2.058790178805516 1.838077939017356 0  3.673332592838314 1.215834814323372 0  0.9071956592137768 0.8220343607442596 0  0.1310120797546304 1.144290287522608 0  1.913874615570387 1.526312479062075 0  3.167986306711986 0.3602294831961773 0  1.587529998678765 1.414932407001446 0  3.649130568669384 0.1571119266068894 0  2.438436537601556 0.8981101131576004 0  2.184935068055161 0.7132002379880827 0  1.456235642937205 1.158801966988924 0  1.386503074512992 1.484584638506796 0  0.3867705968705845 0.6027444819728521 0  2.762778993639535 1.662639496819767 0  0.650390625 1.871527777777778 0  3.64596729502979 0.8886584698474683 0  3.045611599070008 1.158676339734206 0  0.3993538884374467 1.407167403628448 0  0.1516836018189417 1.317691898227368 0  2.374177243744587 0.44524900986925 0  0.9610399745072515 1.13343594717961 0  0.7717402898146146 1.133192846304489 0  2.217406840067589 1.627730408320619 0  3.374466497724555 1.144327478293632 0  3.102333217040289 1.462470750260982 0  0.9845991046279567 0.1639504476860216 0  4 1.875 0  1.536737024305362 1.842483914655334 0  2.494398952860155 1.128595263390141 0  3.375 0 0  1.35480793550772 0.615559550979754 0  1.200028215648868 0.6638952964742415 0  2.868522658058045 1.379123954802417 0  3.32987895819658 0.4227871628526512 0  2.886186525788335 0.3528756827196673 0  2.804013819276893 0.1511494444935829 0  2.680690785851866 0.4362020186265224 0  1.110915716469613 0.8685559166680689 0  2.214722448960161 1.102379401681194 0  2.276771166733366 0.9046523967228255 0  1.706689197955897 0.724037154727565 0  1.903015710979854 0.7163329050691327 0  1.077254105049741 1.873044405931742 0  1.477182186374218 0.7669362764052622 0  1.604355390029422 0.3138347014223712 0  3.357298773015283 1.292121771221682 0  2.642456732564144 1.122937069483146 0  2.827183673783701 0.6501131617032385 0  0.3000359809036467 0.4857081933782919 0  1.39080974675033 0.9003338946919665 0  2.693907172777001 0.8986988520891301 0  2.931442998585418 1.86469249778093 0  1.607564319358728 1.130938877124746 0  3.077810808817073 1.674470823983352 0  1.080472523982749 0.5815519813637883 0  3.088890913835956 0.8588454627236115 0  3.284214600296659 1.854479326042458 0  1.2873402129058 1.728774218841188 0  2.9013999795169 1.242110306871886 0  0.8761001761669315 1.679172777133284 0  1.219550944192924 1.860427700898438 0  0.5165446672830528 0.1507081055534605 0  0.4929450837918542 0.2984926303907968 0  0.6053481855006131 0.388156428045367 0  1.229670648686675 0.1445228097338785 0  2.074781746031746 1.521468253968254 0  2.128472222222222 1.319444444444444 0  0.8190857636454005 1.871527777777778 0  1.19016415713109 0.373667921434455 0  2.522705049795049 1.642089900409902 0  2.5625 1.875 0  1 0.3125 0  3.875 1.4375 0  3.854421179608893 1.271342359217786 0  3.875 2 0  3.252895074367309 1.717720366266284 0  3.339445936751456 1.603038018552652 0  3.482215988057832 1.614109768761893 0  2.408003729780754 1.243076190508459 0  3.355663254605069 0.1386374657746271 0  0.625 0 0  3.739816599856081 0.4464807305048627 0  2.696925297991427 0.6967143210263376 0  0.7382134072506095 0.3413923519609702 0  0.6975123597992916 0.1262897850255805 0  0.517492993476645 0.5524666371243673 0  1.125 0 0  3.225246433696271 0.8481228132984594 0  2.910439866484053 1.104659118790428 0  1.346838689382765 0.4025104968201652 0  2.648094909987562 1.589828726016094 0  1.932279840451773 1.249120455579388 0  3.614646585703633 0.6838796340683926 0  2.505502053701187 0.4828624056142278 0  1.74173389467281 1.148311677154633 0  1.999851510882803 1.078582430205837 0  3.515990234791048 0.9168810411194217 0  2.319573569366616 1.882073569366616 0  3.87890625 1.68359375 0  1.625 2 0  3.375 2 0  3.4375 1.883729560522389 0  0.6980343576336376 1.408315550915699 0  1.749733229779213 1.862103198238473 0  1.543560459462408 1.710839018652099 0  0 0.875 0  0.9914745867414203 0.9222835981771756 0  3.869047619047619 0.6922933184737153 0  0.351025727780003 1.528728843746343 0  1.119959354294166 1.573963676456541 0  1.79099212
[...]
<PointData  Scalars="U"> 
<DataArray  type="Float64"  Name="U"  format="ascii">9.8455826342065622e-02  0.0000000000000000e+00  3.3091266452316159e-19  9.8455826342065622e-02  0.0000000000000000e+00  9.8455826342065636e-02  4.2966352209091034e-19  9.8455826342065622e-02  7.3841869756549230e-02  1.1759915030451302e-02  9.8455826342065622e-02  0.0000000000000000e+00  2.3001474673304930e-02  1.1970092669845852e-02  4.2468359943435986e-02  2.7451628906221243e-02  8.1785849533893465e-02  6.6759774859957146e-03  0.0000000000000000e+00  4.8883353951357518e-02  9.8455826342065622e-02  0.0000000000000000e+00  8.6309452295038978e-03  0.0000000000000000e+00  6.3444104051725691e-03  6.1156641051576331e-02  5.3483775706035082e-02  6.7889109612705592e-03  2.6076355839155612e-02  1.9237777621141896e-02  9.8455826342065622e-02  4.9215307572882783e-02  0.0000000000000000e+00  4.3074424024653724e-02  9.2302337195686535e-02  9.8455826342065636e-02  9.8455826342065636e-02  5.8502152939132808e-02  1.0333544743179903e-02  7.1314141897457850e-03  3.7797169807879172e-02  7.9883816197137605e-03  3.8753092852958908e-02  6.2861406595781086e-02  6.1020970256788591e-02  2.5091429312715366e-02  1.1992445349253955e-02  2.2371003969835376e-02  6.2324573584757986e-02  6.4163127675405697e-03  6.2020384752869001e-02  8.0866610563510063e-02  9.1340783066831910e-02  1.4044410107322852e-02  9.7370541636613545e-02  7.2096180821267118e-03  9.4115879999520057e-03  0.0000000000000000e+00  7.2190096556832117e-02  4.3311930841256258e-02  6.9496808887461389e-03  7.6830296721470803e-03  6.8317416042420337e-02  5.9334756918197867e-02  3.2040151582753619e-02  4.7496366106270889e-19  6.3577338588156123e-03  1.3218457888220132e-02  7.2160994388748862e-03  7.2242054949642493e-03  8.3828039042147945e-02  1.2703753886071556e-02  4.0740008148184084e-02  2.9342817072105242e-02  7.5800302480464765e-02  2.9586046699777664e-02  1.2266617174430118e-02  7.2353751390575302e-02  9.8455826342065622e-02  1.5188975535299212e-02  1.3686537206632911e-02  3.6827264968401788e-02  2.3075584298921634e-02  2.0284818164244343e-02  2.1301084269521011e-02  9.8455826342065622e-02  0.0000000000000000e+00  2.2482428136417706e-02  7.5552357395568495e-02  9.8455826342065622e-02  1.9279812997795503e-02  7.6421583482486871e-02  8.1280140979727942e-03  9.8455826342065622e-02  9.8455826342065622e-02  0.0000000000000000e+00  0.0000000000000000e+00  3.8066785341409414e-19  9.8455826342065622e-02  8.4610475762712647e-02  6.2019289495559467e-03  5.9996519177196242e-02  0.0000000000000000e+00  0.0000000000000000e+00  9.8455826342065636e-02  9.6917454055470850e-02  6.7658055970315637e-03  7.8643078082524756e-02  2.5713685512446779e-02  9.8455826342065622e-02  7.6751751027097923e-03  7.6760845217168736e-02  5.3320599294590709e-02  9.1258040459316944e-02  3.4374404659390165e-02  3.6487860451727791e-02  2.2236662415889116e-02  3.4571440412338013e-02  4.6907084733909900e-02  7.7130799264426026e-03  1.0611929834591090e-02  4.7389610451850896e-02  9.6640382239865263e-02  1.4636366827228091e-02  3.6611588126335727e-02  4.8723082256779904e-02  4.7299526133789974e-02  3.6697428045370545e-02  6.5143628522576994e-03  6.8101299788340727e-03  6.5951590380125486e-03  6.3858118191099829e-03  6.9136119601063851e-03  4.8522905829987584e-02  7.0961480618843432e-03  8.1545794622422618e-02  7.6891965822470126e-02  8.3893905081862383e-02  7.8048449730796976e-03  5.0596922983691964e-02  7.2607254740978025e-02  6.7403881957586731e-02  5.4110046822625414e-02  5.6875370305014654e-03  1.5798249680500052e-02  5.5572349819316663e-02  7.9001615360657515e-02  2.2533672945521478e-02  3.2454444858181435e-02  8.2341269520025573e-02  7.9963416583746907e-02  4.8824513281950775e-02  2.5088423609501677e-02  1.9202161244855010e-02  9.0959413840332695e-02  9.5524001489033176e-03  8.9006439815165247e-02  5.9677807881826942e-03  1.5771143655577007e-02  8.3064791315758141e-02  3.8481307299997242e-02  1.3754897014773991e-02  1.9723213587966797e-02  1.5124995077233012e-02  6.3533002700667954e-03  7.1936510753958559e-03  6.0830769675178017e-03  5.0245386852581777e-03  7.1416025363618121e-03  6.0119952975283934e-03  1.1233385016234958e-02  6.3526341661540614e-02  6.4457218243642693e-03  7.0686449878330816e-03  9.1841956983662196e-02  9.6568247538209348e-02  8.0331600683554386e-03  2.8348042734334316e-02  5.3392953482430438e-03  6.8634335476454603e-02  7.6387400335967567e-02  7.7013789758666046e-03  8.6967804238197430e-02  1.2018499245345796e-02  1.7762299892429417e-02  6.7645031927986016e-03  6.9881178407437586e-02  6.3851058030591754e-02  8.5422150461916032e-03  9.9303930587754441e-02  1.0890275589990658e-02  6.4350132667332516e-03  1.3914958938275735e-02  9.8071233270416946e-02  9.8455826342065636e-02  9.9642717683753546e-02  4.7324267785168121e-02  3.8500623460347522e-02  6.5588311427871526e-02  4.4134059532491277e-02  9.9197950420854813e-03  6.8724385099623142e-02  3.2465702914564409e-02  9.8455826342065622e-02  8.3232461646157926e-02  6.7078142699887955e-03  1.3793016920893695e-02  8.5312812536765856e-02  2.3449340902763648e-02  3.8015833037884299e-02  8.0409994800772835e-02  5.4570757825124640e-02  7.1847002385392661e-03  4.8099215274912614e-02  5.3835263623613263e-03  9.5425928416019365e-03  8.0439349737147347e-03  3.1917104925715055e-02  5.8007538438884163e-02  4.8956545534869521e-02  6.6470681468023748e-02  9.7143071832316685e-02  8.3823769935679714e-03  1.9761547927559124e-02  8.5740997426260374e-02  8.7136850292880777e-02  7.7238529516906540e-03  4.8015272343231746e-02  5.6883560317649538e-02  6.3586728233367029e-02  1.9060769013072843e-02  4.5194326713059105e-02  1.2415847439455147e-02  8.7928483766496063e-02  8.7551264289423766e-02  1.8779114163885596e-02  0.0000000000000000e+00  1.8276568331721803e-02  2.3185170890181628e-02  3.7312424209298659e-02  7.0477999454672648e-03  7.3581999458239731e-03  5.2964964160401896e-03  7.2616109757148856e-03  3.0930397753439965e-02  1.8291440346305889e-02  1.0139831743097688e-02  1.2533881351950002e-02  9.9784825283531185e-03  9.2992463608135859e-02  1.7410964221942379e-02  1.1176176739995233e-02  2.9574062365011790e-02  1.7846151522327224e-02  6.4226650787609033e-03  4.3439169260767629e-02  2.2416335913458020e-02  8.9596645131046621e-03  8.6966645184736874e-02  2.6922575777071679e-02  6.7681450074053934e-02  2.5363442980940620e-02  8.0083162733312254e-03  8.6082966336366168e-02  8.0802910591826330e-02  2.5759849263643581e-02  8.5302276084083500e-02  9.1053177660294304e-02  1.5837323956538758e-02  2.8198527854233928e-02  3.2077371620407961e-02  9.1179438551297707e-03  5.3059501064506270e-02  3.3934167239596247e-02  9.5508396292642461e-02  1.8013001092353109e-02  6.4476974078103877e-02  8.8120344839765663e-02  1.9764420391674867e-02  4.2766703628161762e-02  2.7853390065084905e-02  9.8455826342065636e-02  7.2297358379155754e-02  5.9939260869320249e-02  6.1125445808480526e-02  2.6575545413066125e-02  4.9011860042217923e-03  7.9264572238970281e-19  6.9160955405091658e-03  6.4913226553510962e-03  2.6595903051498435e-02  1.2159371327139826e-02  4.2986806819752026e-02  8.5932704418182067e-19  7.7188516949756817e-03  1.6906276789346308e-02  1.5778842649054884e-02  5.8747756075804645e-02  2.9839130907347976e-02  6.2415775630345277e-03  7.3337478618835635e-03  2.5398873814483563e-02  1.8584602097947624e-02  9.3233656072332985e-03  8.8816871064725300e-02  6.8555297239441690e-02  9.8455826342065622e-02  9.8455826342065636e-02  8.8742304463049829e-02  7.5111669667818154e-02  8.8195379565833426e-02  7.6150561175305054e-02  6.7303787538521412e-02  3.7500026190972251e-02  6.1708258680296078e-03  9.1893782759609674e-02  7.1825277607432458e-02  1.0638854498667872e-02  4.5694151282146137e-03  1.6230818829696971e-18  6.8454722614357828e-03  5.4965061609951477e-03  7.8747032024221418e-03  9.0311155937383356e-03  2.6799429536629126e-02  1.3785767923402005e-02  6.4458895298790779e-03  0.0000000000000000e+00  1.1922385221109508e-02  9.6230843982631701e-19  7.0771404727864376e-02  5.3271398692910095e-02  4.7414046597093334e-02  8.3811501650900028e-03  5.6713595680396377e-02  </DataArray> 
</PointData> 
</Piece>
</UnstructuredGrid>
</VTKFile>