<?xml version="1.0"?>
<VTKFile type="UnstructuredGrid"  version="0.1"  >
<UnstructuredGrid>
<Piece  NumberOfPoints="65" NumberOfCells="64">
<Points>
<DataArray  type="Float64"  NumberOfComponents="3"  format="ascii">0 0 0  0.0625 0 0  0.125 0 0  0.1875 0 0  0.25 0 0  0.3125 0 0  0.375 0 0  0.4375 0 0  0.5 0 0  0.5625 0 0  0.625 0 0  0.6875 0 0  0.75 0 0  0.8125 0 0  0.875 0 0  0.9375 0 0  1 0 0  1.0625 0 0  1.125 0 0  1.1875 0 0  1.25 0 0  1.3125 0 0  1.375 0 0  1.4375 0 0  1.5 0 0  1.5625 0 0  1.625 0 0  1.6875 0 0  1.75 0 0  1.8125 0 0  1.875 0 0  1.9375 0 0  2 0 0  2.0625 0 0  2.125 0 0  2.1875 0 0  2.25 0 0  2.3125 0 0  2.375 0 0  2.4375 0 0  2.5 0 0  2.5625 0 0  2.625 0 0  2.6875 0 0  2.75 0 0  2.8125 0 0  2.875 0 0  2.9375 0 0  3 0 0  3.0625 0 0  3.125 0 0  3.1875 0 0  3.25 0 0  3.3125 0 0  3.375 0 0  3.4375 0 0  3.5 0 0  3.5625 0 0  3.625 0 0  3.6875 0 0  3.75 0 0  3.8125 0 0  3.875 0 0  3.9375 0 0  4 0 0  </DataArray>
</Points>
<Cells>
<DataArray  type="UInt32"  Name="connectivity"  format="ascii">0 1  1 2  2 3  3 4  4 5  5 6  6 7  7 8  8 9  9 10  10 11  11 12  12 13  13 14  14 15  15 16  16 17  17 18  18 19  19 20  20 21  21 22  22 23  23 24  24 25  25 26  26 27  27 28  28 29  29 30  30 31  31 32  32 33  33 34  34 35  35 36  36 37  37 38  38 39  39 40  40 41  41 42  42 43  43 44  44 45  45 46  46 47  47 48  48 49  49 50  50 51  51 52  52 53  53 54  54 55  55 56  56 57  57 58  58 59  59 60  60 61  61 62  62 63  63 64  </DataArray>
<DataArray  type="UInt32"  Name="offsets"  format="ascii">2 4 6 8 10 12 14 16 18 20 22 24 26 28 30 32 34 36 38 40 42 44 46 48 50 52 54 56 58 60 62 64 66 68 70 72 74 76 78 80 82 84 86 88 90 92 94 96 98 100 102 104 106 108 110 112 114 116 118 120 122 124 126 128 </DataArray>
<DataArray  type="UInt8"  Name="types"  format="ascii">3 3 3 3 3 3 3 3 3 3 3 3 3 3 3 3 3 3 3 3 3 3 3 3 3 3 3 3 3 3 3 3 3 3 3 3 3 3 3 3 3 3 3 3 3 3 3 3 3 3 3 3 3 3 3 3 3 3 3 3 3 3 3 3 </DataArray>
</Cells>
<PointData  Scalars="U"> 
<DataArray  type="Float64"  Name="U"  format="ascii">0.0000000000000000e+00  1.7314850603703555e-01  3.4080023211839855e-01  5.0295517853508231e-01  6.5961334555302376e-01  8.1077473341432482e-01  9.5643934233853289e-01  1.0966071725239563e+00  1.2312782241490052e+00  1.3604524973735410e+00  1.4841299923402196e+00  1.6023107091758126e+00  1.7149946479925029e+00  1.8221818088891326e+00  1.9238721919524076e+00  2.0200657972580363e+00  2.1107626248718123e+00  2.1959626748506187e+00  2.2756659472433634e+00  2.3498724420918338e+00  2.4185821594314780e+00  2.4817950992920981e+00  2.5395112616984608e+00  2.5917306466708312e+00  2.6384532542254204e+00  2.6796790843747420e+00  2.7154081371278900e+00  2.7456404124907277e+00  2.7703759104659884e+00  2.7896146310532792e+00  2.8033565742489985e+00  2.8116017400461510e+00  2.8143501284340582e+00  2.8116017393979642e+00  2.8033565729185312e+00  2.7896146289712114e+00  2.7703759075254966e+00  2.7456404085440420e+00  2.7154081319816532e+00  2.6796790777841295e+00  2.6384532458869803e+00  2.5917306362139896e+00  2.5395112486756419e+00  2.4817950831674174e+00  2.4185821395679565e+00  2.3498724177371062e+00  2.2756659175138627e+00  2.1959626387142315e+00  2.1107625811290265e+00  2.0200657445216295e+00  1.9238721286257536e+00  1.8221817331432313e+00  1.7149945577418786e+00  1.6023106020534676e+00  1.4841298656718609e+00  1.3604523481513460e+00  1.2312780490052213e+00  1.0966069677046852e+00  9.5643910367806140e-01  8.1077445631041822e-01  6.5961302494361451e-01  5.0295480887680799e-01  3.4079980736745918e-01  1.7314801963285301e-01  -5.5514784698825463e-07  </DataArray> 
</PointData> 
</Piece>
</UnstructuredGrid>
</VTKFile>