<?xml version="1.0"?>
<VTKFile type="UnstructuredGrid"  version="0.1"  >
<UnstructuredGrid>
<Piece  NumberOfPoints="2849" NumberOfCells="5504">
<Points>
<DataArray  type="Float64"  NumberOfComponents="3"  format="ascii">0 0 0  0 2 0  4 2 0  4 0 0  0 0.06249999999988225 0  0 0.1249999999997431 0  0 0.1874999999996473 0  0 0.2499999999995515 0  0 0.3124999999993696 0  0 0.3749999999991878 0  0 0.4374999999990059 0  0 0.4999999999988241 0  0 0.5624999999986446 0  0 0.6249999999984651 0  0 0.6874999999982856 0  0 0.7499999999981061 0  0 0.8124999999979265 0  0 0.874999999997747 0  0 0.9374999999975675 0  0 0.999999999997388 0  0 1.06249999999755 0  0 1.124999999997712 0  0 1.187499999997874 0  0 1.249999999998036 0  0 1.312499999998197 0  0 1.374999999998359 0  0 1.437499999998521 0  0 1.499999999998683 0  0 1.562499999998848 0  0 1.624999999999012 0  0 1.687499999999177 0  0 1.749999999999342 0  0 1.812499999999506 0  0 1.874999999999671 0  0 1.937499999999835 0  0.06249999999988101 2 0  0.1249999999997626 2 0  0.1874999999996225 2 0  0.2499999999994824 2 0  0.3124999999993856 2 0  0.3749999999992888 2 0  0.437499999999192 2 0  0.4999999999990952 2 0  0.5624999999989143 2 0  0.6249999999987335 2 0  0.6874999999985526 2 0  0.7499999999983717 2 0  0.8124999999981909 2 0  0.87499999999801 2 0  0.9374999999978291 2 0  0.9999999999976482 2 0  1.062499999997466 2 0  1.124999999997284 2 0  1.187499999997102 2 0  1.249999999996919 2 0  1.312499999996737 2 0  1.374999999996555 2 0  1.437499999996373 2 0  1.49999999999619 2 0  1.562499999996013 2 0  1.624999999995837 2 0  1.68749999999566 2 0  1.749999999995483 2 0  1.812499999995306 2 0  1.87499999999513 2 0  1.937499999994953 2 0  1.999999999994776 2 0  2.062499999994935 2 0  2.124999999995095 2 0  2.187499999995254 2 0  2.249999999995413 2 0  2.312499999995572 2 0  2.374999999995731 2 0  2.43749999999589 2 0  2.49999999999605 2 0  2.562499999996215 2 0  2.624999999996379 2 0  2.687499999996543 2 0  2.749999999996708 2 0  2.812499999996873 2 0  2.874999999997037 2 0  2.937499999997202 2 0  2.999999999997367 2 0  3.062499999997531 2 0  3.124999999997696 2 0  3.18749999999786 2 0  3.249999999998025 2 0  3.312499999998189 2 0  3.374999999998354 2 0  3.437499999998519 2 0  3.499999999998683 2 0  3.562499999998848 2 0  3.624999999999012 2 0  3.687499999999177 2 0  3.749999999999341 2 0  3.812499999999506 2 0  3.87499999999967 2 0  3.937499999999835 2 0  4 1.937500000000006 0  4 1.875000000000123 0  4 1.812500000000267 0  4 1.750000000000209 0  4 1.687500000000338 0  4 1.625000000000461 0  4 1.562500000000623 0  4 1.500000000000693 0  4 1.437500000001101 0  4 1.375000000001536 0  4 1.312500000002047 0  4 1.250000000002256 0  4 1.187500000002735 0  4 1.125000000003229 0  4 1.062500000003664 0  4 1.000000000004118 0  4 0.9375000000038636 0  4 0.8750000000036089 0  4 0.8125000000033542 0  4 0.7500000000030995 0  4 0.6875000000028448 0  4 0.6250000000025902 0  4 0.5625000000023355 0  4 0.5000000000020808 0  4 0.4375000000018205 0  4 0.3750000000015605 0  4 0.3125000000013003 0  4 0.2500000000010403 0  4 0.18750000000078 0  4 0.12500000000052 0  4 0.06250000000026001 0  3.937499999999757 0 0  3.874999999999586 0 0  3.812499999999443 0 0  3.749999999999274 0 0  3.687499999998965 0 0  3.624999999998618 0 0  3.562499999998253 0 0  3.499999999998004 0 0  3.437499999998331 0 0  3.374999999998717 0 0  3.312499999999106 0 0  3.249999999999506 0 0  3.187499999999934 0 0  3.125000000000414 0 0  3.06250000000085 0 0  3.000000000001386 0 0  2.937500000001852 0 0  2.875000000002339 0 0  2.812500000002886 0 0  2.750000000003406 0 0  2.687500000003777 0 0  2.625000000004116 0 0  2.56250000000449 0 0  2.500000000004855 0 0  2.437500000005349 0 0  2.375000000005834 0 0  2.312500000006138 0 0  2.250000000006474 0 0  2.187500000006903 0 0  2.125000000007378 0 0  2.06250000000783 0 0  2.000000000008237 0 0  1.937500000007987 0 0  1.875000000007738 0 0  1.812500000007488 0 0  1.750000000007239 0 0  1.68750000000699 0 0  1.625000000006741 0 0  1.562500000006492 0 0  1.500000000006242 0 0  1.437500000005982 0 0  1.375000000005722 0 0  1.312500000005462 0 0  1.250000000005202 0 0  1.187500000004942 0 0  1.125000000004682 0 0  1.062500000004421 0 0  1.000000000004162 0 0  0.9375000000039013 0 0  0.8750000000036411 0 0  0.8125000000033809 0 0  0.7500000000031211 0 0  0.6875000000028608 0 0  0.625000000002601 0 0  0.5625000000023408 0 0  0.500000000002081 0 0  0.4375000000018208 0 0  0.3750000000015605 0 0  0.3125000000013003 0 0  0.2500000000010405 0 0  0.1875000000007803 0 0  0.12500000000052 0 0  0.06250000000025979 0 0  2.751943738452744 0.4502303079023504 0  1.750000000006644 0.4330127018922776 0  1.24999999999692 1.566987298109043 0  2.198013603145998 1.55809283687899 0  3.247881315357668 1.576613977471344 0  0.7521186846436931 0.4233860225293321 0  3.604646881608647 0.7183803468350101 0  0.3953531183914658 1.281619653165416 0  1.25035311411272 0.4314082553323813 0  1.500058852358896 0.8445724375661612 0  1.989156378093928 0.8579334422883895 0  1.750000000009022 1.299038105676122 0  0.9973508174755198 0.8076485688783537 0  2.749999999997339 1.566987298107004 0  3.002717843603222 1.188508528991859 0  2.533455241124366 1.190277318175192 0  2.22583414908933 0.4214378737978327 0  3.279641263780507 0.389092528073727 0  3.552608346638475 1.213748434721428 0  0.7206826926270968 1.613777072928224 0  0.4473966578135999 0.7859714703715941 0  2.767860793511576 0.8832772111385303 0  1.749999999995483 1.694100648860432 0  1.258589614778837 1.151739544308598 0  3.633974596214294 0.3660254037857282 0  3.633974596214256 1.633974596214794 0  0.366025403785061 1.633974596214344 0  0.3660254037865152 0.3660254037856426 0  3.187282366407972 0.799919109919273 0  0.8210937919434733 1.200395787834862 0  2.382690224779792 0.8121957412458931 0  2.148692841347422 1.187388232457183 0  0.7223737376445598 0.7968100196249739 0  0.6342452248785366 0.993183629103228 0  0.9092223047094965 1.004022178356608 0  3.277663095120849 1.201128481856643 0  3.369945356523223 1.00683377232035 0  3.095000105005597 0.9942138194555659 0  0.8747347510596064 0.6155172957038428 0  0.5997576712286465 0.604678746450463 0  3.125299579480445 1.382561253231602 0  3.400244830998071 1.395181206096386 0  1.500000000002971 1.433012701892583 0  1.50429480739393 1.22538882499236 0  1.254294807387878 1.359363421208821 0  1.499999999996201 1.630543973484738 0  1.750000000002252 1.496569377268277 0  1.97400680157751 1.428565471277556 0  1.97400680157074 1.626096742869711 0  3.578627614123561 0.9660643907782188 0  3.395964624008309 0.7591497283771416 0  0.4213748881025329 1.033795561768505 0  0.6082234551674696 1.241007720500139 0  3.802323440804323 0.6091901734185454 0  3.802323440804323 0.8591901734195642 0  1.001235899378206 0.4273971389308567 0  1.12385196579412 0.6195284121053675 0  1.500176557059682 0.4322104786123294 0  1.375205983235808 0.6379903464492712 0  1.62502942618277 0.6387925697292194 0  2.876358921800281 1.377747913549431 0  2.768086542363794 1.189392923583525 0  2.641727620560853 1.378632308141098 0  1.625000000006443 0.2165063509461388 0  1.87500000000744 0.2165063509461388 0  2.474006801571669 1.562540067492997 0  2.365734422135182 1.374185077527091 0  0.1976765591957329 1.39080982658205 0  0.1976765591957329 1.140809826581402 0  1.375176557059481 0.2157041276661906 0  2.998940657677504 1.571800637789174 0  0.8760593423239273 0.2116930112646661 0  1.125176557058441 0.2157041276661906 0  2.112917074548784 0.2107189368989164 0  2.362917074547092 0.2107189368989164 0  3.373940657678175 1.788306988735672 0  3.123940657677517 1.788306988735672 0  2.874999999997353 1.783493649053502 0  2.349006801571024 1.779046418439495 0  2.624999999996695 1.783493649053502 0  1.248704834917208 0.8261105032222574 0  2.099006801570387 1.779046418439495 0  0.6260593423228871 0.2116930112646661 0  1.744607615226412 0.8512529399272754 0  1.869578189050286 0.6454730720903336 0  2.625971869228799 0.2251151539511752 0  2.488888943771037 0.4358340908500916 0  1.987917074547987 0.4272252878450552 0  1.625029426183959 1.071805271621142 0  1.869578189051475 1.078485773982256 0  1.374999999996555 1.783493649054522 0  1.124999999997284 1.783493649054522 0  2.875971869227065 0.2251151539511752 0  2.107495263591629 0.6396856580431112 0  3.015792501116626 0.4196614179880387 0  2.969613052430358 0.6250747089108117 0  3.233461815094239 0.5945058189965 0  0.9853413463120082 1.590382185518634 0  1.035546895970196 1.383691542971953 0  0.7708882422852851 1.407086430381543 0  2.75990226598216 0.6667537595204404 0  2.977571579959774 0.8415981605289016 0  1.039841703361155 1.17606766607173 0  2.17335322224671 1.372740534668087 0  1.949346420678222 1.243213169066653 0  3.776304173319237 1.106874217362773 0  3.776304173319237 1.35687421736106 0  3.139820631890947 0.1945462640368635 0  3.389820631889256 0.1945462640368635 0  0.2236983289068 0.892985735184491 0  0.2236983289068 0.6429857351852091 0  0.8603413463123726 1.806888536464112 0  0.610341346313096 1.806888536464112 0  1.874999999995129 1.847050324430216 0  1.379324233568866 0.9981559909373798 0  1.624999999995837 1.847050324430216 0  3.566987298106149 0.1830127018928641 0  3.816987298107147 0.1830127018928641 0  3.816987298107128 1.566987298107743 0  3.816987298107128 1.816987298107397 0  0.1830127018932576 0.1830127018928213 0  0.4330127018942981 0.1830127018928213 0  0.1830127018932576 0.4330127018922334 0  3.566987298106469 1.816987298107397 0  0.4330127018920781 1.816987298107172 0  0.1830127018925305 1.816987298107172 0  0.1830127018925305 1.566987298106514 0  3.816987298107147 0.4330127018939045 0  2.304262186934561 0.616816807521863 0  2.567316981616268 0.6312130245741218 0  2.575275509145684 0.8477364761922117 0  3.593291471426365 1.42386151546811 0  0.4067110308000575 0.5759984370786184 0  3.4568079299974 0.3775589659297276 0  0.5433540482060789 1.623875834571284 0  2.885289318557399 1.035892870065195 0  2.650658017317971 1.
[...]
<PointData  Vectors="U"> 
<DataArray  type="Float64"  Name="U"  NumberOfComponents="3" format="ascii">0.0000000000000000e+00 0.0000000000000000e+00 0.0000000000000000e+00  0.0000000000000000e+00 0.0000000000000000e+00 0.0000000000000000e+00  0.0000000000000000e+00 0.0000000000000000e+00 0.0000000000000000e+00  0.0000000000000000e+00 0.0000000000000000e+00 0.0000000000000000e+00  5.0000000000000000e+01 0.0000000000000000e+00 0.0000000000000000e+00  5.0000000000000000e+01 0.0000000000000000e+00 0.0000000000000000e+00  5.0000000000000000e+01 0.0000000000000000e+00 0.0000000000000000e+00  5.0000000000000000e+01 0.0000000000000000e+00 0.0000000000000000e+00  5.0000000000000000e+01 0.0000000000000000e+00 0.0000000000000000e+00  5.0000000000000000e+01 0.0000000000000000e+00 0.0000000000000000e+00  5.0000000000000000e+01 0.0000000000000000e+00 0.0000000000000000e+00  5.0000000000000000e+01 0.0000000000000000e+00 0.0000000000000000e+00  5.0000000000000000e+01 0.0000000000000000e+00 0.0000000000000000e+00  5.0000000000000000e+01 0.0000000000000000e+00 0.0000000000000000e+00  5.0000000000000000e+01 0.0000000000000000e+00 0.0000000000000000e+00  5.0000000000000000e+01 0.0000000000000000e+00 0.0000000000000000e+00  5.0000000000000000e+01 0.0000000000000000e+00 0.0000000000000000e+00  5.0000000000000000e+01 0.0000000000000000e+00 0.0000000000000000e+00  5.0000000000000000e+01 0.0000000000000000e+00 0.0000000000000000e+00  5.0000000000000000e+01 0.0000000000000000e+00 0.0000000000000000e+00  5.0000000000000000e+01 0.0000000000000000e+00 0.0000000000000000e+00  5.0000000000000000e+01 0.0000000000000000e+00 0.0000000000000000e+00  5.0000000000000000e+01 0.0000000000000000e+00 0.0000000000000000e+00  5.0000000000000000e+01 0.0000000000000000e+00 0.0000000000000000e+00  5.0000000000000000e+01 0.0000000000000000e+00 0.0000000000000000e+00  5.0000000000000000e+01 0.0000000000000000e+00 0.0000000000000000e+00  5.0000000000000000e+01 0.0000000000000000e+00 0.0000000000000000e+00  5.0000000000000000e+01 0.0000000000000000e+00 0.0000000000000000e+00  5.0000000000000000e+01 0.0000000000000000e+00 0.0000000000000000e+00  5.0000000000000000e+01 0.0000000000000000e+00 0.0000000000000000e+00  5.0000000000000000e+01 0.0000000000000000e+00 0.0000000000000000e+00  5.0000000000000000e+01 0.0000000000000000e+00 0.0000000000000000e+00  5.0000000000000000e+01 0.0000000000000000e+00 0.0000000000000000e+00  5.0000000000000000e+01 0.0000000000000000e+00 0.0000000000000000e+00  5.0000000000000000e+01 0.0000000000000000e+00 0.0000000000000000e+00  0.0000000000000000e+00 0.0000000000000000e+00 0.0000000000000000e+00  0.0000000000000000e+00 0.0000000000000000e+00 0.0000000000000000e+00  0.0000000000000000e+00 0.0000000000000000e+00 0.0000000000000000e+00  0.0000000000000000e+00 0.0000000000000000e+00 0.0000000000000000e+00  0.0000000000000000e+00 0.0000000000000000e+00 0.0000000000000000e+00  0.0000000000000000e+00 0.0000000000000000e+00 0.0000000000000000e+00  0.0000000000000000e+00 0.0000000000000000e+00 0.0000000000000000e+00  0.0000000000000000e+00 0.0000000000000000e+00 0.0000000000000000e+00  0.0000000000000000e+00 0.0000000000000000e+00 0.0000000000000000e+00  0.0000000000000000e+00 0.0000000000000000e+00 0.0000000000000000e+00  0.0000000000000000e+00 0.0000000000000000e+00 0.0000000000000000e+00  0.0000000000000000e+00 0.0000000000000000e+00 0.0000000000000000e+00  0.0000000000000000e+00 0.0000000000000000e+00 0.0000000000000000e+00  0.0000000000000000e+00 0.0000000000000000e+00 0.0000000000000000e+00  0.0000000000000000e+00 0.0000000000000000e+00 0.0000000000000000e+00  0.0000000000000000e+00 0.0000000000000000e+00 0.0000000000000000e+00  0.0000000000000000e+00 0.0000000000000000e+00 0.0000000000000000e+00  0.0000000000000000e+00 0.0000000000000000e+00 0.0000000000000000e+00  0.0000000000000000e+00 0.0000000000000000e+00 0.0000000000000000e+00  0.0000000000000000e+00 0.0000000000000000e+00 0.0000000000000000e+00  0.0000000000000000e+00 0.0000000000000000e+00 0.0000000000000000e+00  0.0000000000000000e+00 0.0000000000000000e+00 0.0000000000000000e+00  0.0000000000000000e+00 0.0000000000000000e+00 0.0000000000000000e+00  0.0000000000000000e+00 0.0000000000000000e+00 0.0000000000000000e+00  0.0000000000000000e+00 0.0000000000000000e+00 0.0000000000000000e+00  0.0000000000000000e+00 0.0000000000000000e+00 0.0000000000000000e+00  0.0000000000000000e+00 0.0000000000000000e+00 0.0000000000000000e+00  0.0000000000000000e+00 0.0000000000000000e+00 0.0000000000000000e+00  0.0000000000000000e+00 0.0000000000000000e+00 0.0000000000000000e+00  0.0000000000000000e+00 0.0000000000000000e+00 0.0000000000000000e+00  0.0000000000000000e+00 0.0000000000000000e+00 0.0000000000000000e+00  0.0000000000000000e+00 0.0000000000000000e+00 0.0000000000000000e+00  0.0000000000000000e+00 0.0000000000000000e+00 0.0000000000000000e+00  0.0000000000000000e+00 0.0000000000000000e+00 0.0000000000000000e+00  0.0000000000000000e+00 0.0000000000000000e+00 0.0000000000000000e+00  0.0000000000000000e+00 0.0000000000000000e+00 0.0000000000000000e+00  0.0000000000000000e+00 0.0000000000000000e+00 0.0000000000000000e+00  0.0000000000000000e+00 0.0000000000000000e+00 0.0000000000000000e+00  0.0000000000000000e+00 0.0000000000000000e+00 0.0000000000000000e+00  0.0000000000000000e+00 0.0000000000000000e+00 0.0000000000000000e+00  0.0000000000000000e+00 0.0000000000000000e+00 0.0000000000000000e+00  0.0000000000000000e+00 0.0000000000000000e+00 0.0000000000000000e+00  0.0000000000000000e+00 0.0000000000000000e+00 0.0000000000000000e+00  0.0000000000000000e+00 0.0000000000000000e+00 0.0000000000000000e+00  0.0000000000000000e+00 0.0000000000000000e+00 0.0000000000000000e+00  0.0000000000000000e+00 0.0000000000000000e+00 0.0000000000000000e+00  0.0000000000000000e+00 0.0000000000000000e+00 0.0000000000000000e+00  0.0000000000000000e+00 0.0000000000000000e+00 0.0000000000000000e+00  0.0000000000000000e+00 0.0000000000000000e+00 0.0000000000000000e+00  0.0000000000000000e+00 0.0000000000000000e+00 0.0000000000000000e+00  0.0000000000000000e+00 0.0000000000000000e+00 0.0000000000000000e+00  0.0000000000000000e+00 0.0000000000000000e+00 0.0000000000000000e+00  0.0000000000000000e+00 0.0000000000000000e+00 0.0000000000000000e+00  0.0000000000000000e+00 0.0000000000000000e+00 0.0000000000000000e+00  0.0000000000000000e+00 0.0000000000000000e+00 0.0000000000000000e+00  0.0000000000000000e+00 0.0000000000000000e+00 0.0000000000000000e+00  0.0000000000000000e+00 0.0000000000000000e+00 0.0000000000000000e+00  0.0000000000000000e+00 0.0000000000000000e+00 0.0000000000000000e+00  0.0000000000000000e+00 0.0000000000000000e+00 0.0000000000000000e+00  0.0000000000000000e+00 0.0000000000000000e+00 0.0000000000000000e+00  0.0000000000000000e+00 0.0000000000000000e+00 0.0000000000000000e+00  0.0000000000000000e+00 0.0000000000000000e+00 0.0000000000000000e+00  0.0000000000000000e+00 0.0000000000000000e+00 0.0000000000000000e+00  2.9332641730010045e+00 -1.1512178386730979e-05 0.0000000000000000e+00  5.6770912420332733e+00 -2.1605930280525553e-05 0.0000000000000000e+00  8.2318946842894629e+00 7.3774011892502583e-06 0.0000000000000000e+00  1.0597264972844906e+01 -2.7454207086187403e-05 0.0000000000000000e+00  1.2773498113723271e+01 9.0775176288940203e-06 0.0000000000000000e+00  1.4760457586995363e+01 1.4662990692856570e-05 0.0000000000000000e+00  1.6558189436874322e+01 2.4183211648664383e-05 0.0000000000000000e+00  1.8166677271652965e+01 3.7727236320142396e-05 0.0000000000000000e+00  1.9585939842592683e+01 3.7699211273336966e-05 0.0000000000000000e+00  2.0815942643653120e+01 4.6688187026222821e-05 0.0000000000000000e+00  2.1856752860055487e+01 4.8610212779144277e-05 0.0000000000000000e+00  2.2708293359445459e+01 4.8024828227888317e-05 0.0000000000000000e+00  2.3370613545120808e+01 6.2942663649726287e-05 0.0000000000000000e+00  2.3843712432404242e+01 6.3069610427202724e-05 0.0000000000000000e+00  2.4127565822499061e+01 6.8041571030456232e-05 0.0000000000000000e+00  2.4222202086305437e+01 6.5379907030401537e-05 0.0000000000000000e+00  2.4127569789730803e+01 6.7128532414383860e-05 0.0000000000000000e+00  2.3843742250921888e+01 6.5160803085236312e-05 0.0000000000000000e+00  2.3370635155853940e+01 6.0608677667238378e-05 0.0000000000000000e+00  2.2708324394147024e+01 7.1261250122686541e-05 0.0000000000000000e+00  2.1856787639910205e+01 5.1487829343218358e-05 0.0000000000000000e+00  2.0815962101770896e+01 5.1697739681455155e-05 0.0000000000000000e+00  1.9585972047980398e+01 6.0729481902318703e-05 0.0000000000000000e+00  1.8166727079799326e+01 2.7740800390516291e-05 0.0000000000000000e+00  1.6558191726176496e+01 5.0576169492766053e-05 0.0000000000000000e+00  1.4760558210227503e+01 4.1284306620302004e-05 0.0000000000000000e+00  1.2773549062053570e+01 1.4558780921934965e-05 0.0000000000000000e+00  1.0597353156129193e+01 9.5402044332016430e-06 0.0000000000000000e+00  8.2318800718367520e+00 7.7729015784982927e-06 0.0000000000000000e+00  5.6771734415337605e+00 -4.0136086827935436e-06 0.0000000000000000e+00  2.9331872999389392e+00 -6.9570040176161903e-06 0.0000000000000000e+00  0.0000000000000000e+00 0.0000000000000000e+00 0.0000000000000000e+00  0.0000000000000000e+00 0.0000000000000000e+00 0.0000000000000000e+00  0.0000000000000000e+00 0.0000000000000000e+00 0.0000000000000000e+00  0.0000000000000000e+00 0.0000000000000000e+00 0.0000000000000000e+00  0.0000000000000000e+00 0.0000000000000000e+00 0.0000000000000000e+00  0.0000000000000000e+00 0.0000000000000000e+00 0.0000000000000000e+00  0.0000000000000000e+00 0.0000000000000000e+00 0.0000000000000000e+00  0.0000000000000000e+00 0.0000000000000000e+00 0.0000000000000000e+00  0.0000000000000000e+00 0.0000000000000000e+00 0.0000000000000000e+00  0.0000000000000000e+00 0.0000000000000000e+00 0.0000000000000000e+00  0.0000000000000000e+00 0.0000000000000000e+00 0.0000000000000000e+00  0.0000000000000000e+00 0.0000000000000000e+00 0.0000000000000000e+00  0.0000000000000000e+00 0.0000000000000000e+00 0.0000000000000000e+00  0.0000000000000000e+00 0.0000000000000000e+00 0.0000000000000000e+00  0.0000000000000000e+00 0.0000000000000000e+00 0.0000000000000000e+00  0.0000000000000000e+00 0.0000000000000000e+00 0.0000000000000000e+00  0.0000000000000000e+00 0.0000000000000000e+00 0.0000000000000000e+00  0.0000000000000000e+00 0.0000000000000000e+00 0.0000000000000000e+00  0.0000000000000000e+00 0.0000000000000000e+00 0.0000000000000000e+00  0.0000000000000000e+00 0.0000000000000000e+00 0.0000000000000000e+00  0.0000000000000000e+00 0.0000000000000000e+00 0.0000000000000000e+00  0.0000000000000000e+00 0.0000000000000000e+00 0.0000000000000000e+00  0.0000000000000000e+00 0.0000000000000000e+00 0.0000000000000000e+00  0.0000000000000000e+00 0.0000000000000000e+00 0.0000000000000000e+00  0.0000000000000000e+00 0.0000000000000000e+00 0.0000000000000000e+00  0.0000000000000000e+00 0.0000000000000000e+00 0.0000000000000000e+00  0.0000000000000000e+00 0.0000000000000000e+00 0.0000000000000000e+00  0.0000000000000000e+00 0.0000000000000000e+00 0.0000000000000000e+00  0.0000000000000000e+00 0.0000000000000000e+00 0.0000000000000000e+00  0.0000000000000000e+00 0.0000000000000000e+00 0.0000000000000000e+00  0.0000000000000000e+00 0.0000000000000000e+00 0.0000000000000000e+00  0.0000000000000000e+00 0.0000000000000000e+00 0.0000000000000000e+00  0.0000000000000000e+00 0.0000000000000000e+00 0.0000000000000000e+00  0.0000000000000000e+00 0.0000000000000000e+00 0.0000000000000000e+00  0.0000000000000000e+00 0.0000000000000000e+00 0.0000000000000000e+00  0.0000000000000000e+00 0.0000000000000000e+00 0.0000000000000000e+00  0.0000000000000000e+00 0.0000000000000000e+00 0.0000000000000000e+00  0.0000000000000000e+00 0.0000000000000000e+00 0.0000000000000000e+00  0.0000000000000000e+00 0.0000000000000000e+00 0.0000000000000000e+00  0.0000000000000000e+00 0.0000000000000000e+00 0.0000000000000000e+00  0.0000000000000000e+00 0.0000000000000000e+00 0.0000000000000000e+00  0.0000000000000000e+00 0.0000000000000000e+00 0.0000000000000000e+00  0.0000000000000000e+00 0.0000000000000000e+00 0.0000000000000000e+00  0.0000000000000000e+00 0.0000000000000000e+00 0.0000000000000000e+00  0.0000000000000000e+00 0.0000000000000000e+00 0.0000000000000000e+00  0.0000000000000000e+00 0.0000000000000000e+00 0.0000000000000000e+00  0.0000000000000000e+00 0.0000000000000000e+00 0.0000000000000000e+00  0.0000000000000000e+00 0.0000000000000000e+00 0.0000000000000000e+00  0.0000000000000000e+00 0.0000000000000000e+00 0.0000000000000000e+00  0.0000000000000000e+00 0.0000000000000000e+00 0.0000000000000000e+00  0.0000000000000000e+00 0.0000000000000000e+00 0.0000000000000000e+00  0.0000000000000000e+00 0.0000000000000000e+00 0.0000000000000000e+00  0.0000000000000000e+00 0.0000000000000000e+00 0.0000000000000000e+00  0.0000000000000000e+00 0.0000000000000000e+00 0.0000000000000000e+00  0.0000000000000000e+00 0.0000000000000000e+00 0.0000000000000000e+00  0.0000000000000000e+00 0.0000000000000000e+00 0.0000000000000000e+00  0.0000000000000000e+00 0.0000000000000000e+00 0.0000000000000000e+00  0.0000000000000000e+00 0.0000000000000000e+00 0.0000000000000000e+00  0.0000000000000000e+00 0.0000000000000000e+00 0.0000000000000000e+00  0.0000000000000000e+00 0.0000000000000000e+00 0.0000000000000000e+00  0.0000000000000000e+00 0.0000000000000000e+00 0.0000000000000000e+00  0.0000000000000000e+00 0.0000000000000000e+00 0.0000000000000000e+00  0.0000000000000000e+00 0.0000000000000000e+00 0.0000000000000000e+00  1.6900651426174409e+01 -6.1711804631342233e-04 0.0000000000000000e+00  1.6444482088694016e+01 1.8511574699818296e-02 0.0000000000000000e+00  1.6562663669177624e+01 -2.2417853727215362e-01 0.0000000000000000e+00  1.6677111980215173e+01 5.5620189709005728e-04 0.0000000000000000e+00  1.6168547853023259e+01 1.7087431727478013e-04 0.0000000000000000e+00  1.7032645598686528e+01 1.4584583513226352e+00 0.0000000000000000e+00  2.2301163590017893e+01 6.8055694801006468e-05 0.0000000000000000e+00  1.9442911895239092e+01 -2.7113747767376921e+00 0.0000000000000000e+00  1.6518530738851965e+01 2.2268943671054178e-01 0.0000000000000000e+00  2.3582448087499404e+01 5.4266765042408266e-02 0.0000000000000000e+00  2.3733363684106386e+01 3.2436904814797693e-03 0.0000000000000000e+00  2.2054044037537029e+01 -2.4578551157489109e-02 0.0000000000000000e+00  2.2824119122608121e+01 4.7498619183467672e-01 0.0000000000000000e+00  1.6434834216598361e+01 6.9228146367753625e-04 0.0000000000000000e+00  2.3361552346075058e+01 3.0753998098104760e-04 0.0000000000000000e+00  2.3346225476357990e+01 6.5941203737657976e-04 0.0000000000000000e+00  1.6113201834376468e+01 -7.8826492305850994e-04 0.0000000000000000e+00  1.5182256065012123e+01 -1.0633037345976265e-05 0.0000000000000000e+00  2.3115475437511826e+01 9.6305548669065348e-05 0.0000000000000000e+00  1.6220937301519310e+01 -1.4978671996637491e+00 0.0000000000000000e+00  1.9990568510867817e+01 2.0248019261711225e+00 0.0000000000000000e+00  2.3892732319929767e+01 -2.1739036093456742e-04 0.0000000000000000e+00  1.2559898509646613e+01 -1.0185382358140026e-02 0.0000000000000000e+00  2.3478843360623788e+01 -1.4881882065053095e-01 0.0000000000000000e+00  1.4486851421877438e+01 4.7851472374655247e-05 0.0000000000000000e+00  1.4486711847798633e+01 3.2397212210476007e-05 0.0000000000000000e+00  1.7472805667724902e+01 -4.0722589157832392e+00 0.0000000000000000e+00  1.7471675376187946e+01 4.0753006906866149e+00 0.0000000000000000e+00  2.3252550556320546e+01 -2.6891583226992116e-05 0.0000000000000000e+00  2.2285232228343165e+01 -8.5789074500437890e-01 0.0000000000000000e+00  2.3369321779858101e+01 -5.1942074495478063e-04 0.0000000000000000e+00  2.3373369065736309e+01 -8.9150014407079385e-04 0.0000000000000000e+00  2.1860498183542791e+01 1.1377927217117287e+00 0.0000000000000000e+00  2.1779085135035718e+01 5.0153290496551269e-02 0.0000000000000000e+00  2.3256739287767175e+01 -1.4683816681313076e-02 0.0000000000000000e+00  2.3242299851929786e+01 1.7407503529036231e-04 0.0000000000000000e+00  2.4221058540454649e+01 9.1814183054520502e-05 0.0000000000000000e+00  2.4221497315530289e+01 8.5999095007843187e-05 0.0000000000000000e+00  2.0528097318968285e+01 1.0869821514618736e+00 0.0000000000000000e+00  2.0004743098570742e+01 2.4200963048249058e+00 0.0000000000000000e+00  2.0677073615010567e+01 3.0438542286109500e-04 0.0000000000000000e+00  2.0439360537631678e+01 1.4363751407211990e-04 0.0000000000000000e+00  1.9696592942420288e+01 -9.0301799918357697e-02 0.0000000000000000e+00  2.2953664822371326e+01 -7.1721522762795920e-02 0.0000000000000000e+00  2.1068546087030228e+01 -2.6518706973313283e-01 0.0000000000000000e+00  1.4634732651666766e+01 -5.7884476026811064e-02 0.0000000000000000e+00  1.8257635304847096e+01 -2.2503615612650810e-02 0.0000000000000000e+00  1.9775325179175731e+01 -5.5672796783962433e-03 0.0000000000000000e+00  1.4727653227718562e+01 -2.5054214938812526e-03 0.0000000000000000e+00  2.4194289685328929e+01 8.0085745420706528e-05 0.0000000000000000e+00  2.2817093571016230e+01 3.7068254350895074e-05 0.0000000000000000e+00  1.9885713835029275e+01 -3.4067643505715994e-01 0.0000000000000000e+00  2.1073119077186384e+01 -1.7175278133696501e+00 0.0000000000000000e+00  2.0522737670309201e+01 6.1210895146227452e-05 0.0000000000000000e+00  2.3741942135233295e+01 7.1639323561984033e-05 0.0000000000000000e+00  1.6637543895163038e+01 6.0219303174861316e-01 0.0000000000000000e+00  2.0691139160105774e+01 4.4786640332770061e-01 0.0000000000000000e+00  1.6452275202192833e+01 7.1387078365454021e-02 0.0000000000000000e+00  2.1038267701407293e+01 1.5947045419218858e-01 0.0000000000000000e+00  2.1062426607737653e+01 4.9528352928111537e-02 0.0000000000000000e+00  2.0765754386607284e+01 5.7400203068975022e-04 0.0000000000000000e+00  2.3353776906537760e+01 4.9875371767877730e-04 0.0000000000000000e+00  2.0749683359121395e+01 9.3022486284800431e-04 0.0000000000000000e+00  9.3660053794611784e+00 1.1167166989932035e-02 0.0000000000000000e+00  9.3525054365243019e+00 1.6652811082921572e-03 0.0000000000000000e+00  1.6556211282663341e+01 1.1315003390853177e-03 0.0000000000000000e+00  2.0831227987061197e+01 9.7442684166084651e-04 0.0000000000000000e+00  1.7724223233344766e+01 -3.3566512460180773e+00 0.0000000000000000e+00  1.7663551334054990e+01 -1.2182828201144744e+00 0.0000000000000000e+00  9.3884574956054614e+00 4.2587600164852871e-02 0.0000000000000000e+00  1.6302290836379377e+01 3.5738136965891073e-04 0.0000000000000000e+00  9.8663021923283321e+00 3.6580963483690976e-01 0.0000000000000000e+00  9.5569667843588508e+00 1.3427127544968509e-01 0.0000000000000000e+00  9.1301632360702900e+00 -4.5996967292311525e-04 0.0000000000000000e+00  9.1308539535231503e+00 -6.1030633636921538e-04 0.0000000000000000e+00  9.1697825714019405e+00 3.6460928961243067e-05 0.0000000000000000e+00  9.1696474906523999e+00 9.2549191146880643e-05 0.0000000000000000e+00  9.3526453566273577e+00 2.1071540384254024e-04 0.0000000000000000e+00  9.5196157671159654e+00 6.8273841577271314e-04 0.0000000000000000e+00  9.3521624697689880e+00 4.1004272548524913e-04 0.0000000000000000e+00  2.3308852121757916e+01 1.7338664665008235e-01 0.0000000000000000e+00  9.5190791441652056e+00 4.1419984467683550e-04 0.0000000000000000e+00  1.1049114409636021e+01 9.7055111080168799e-01 0.0000000000000000e+00  2.3674603607122844e+01 1.5601080241096556e-02 0.0000000000000000e+00  2.1179389310501115e+01 1.2375553894273028e-02 0.0000000000000000e+00  9.6771192573581946e+00 -3.8745487426184062e-04 0.0000000000000000e+00  1.6511837836584636e+01 -1.0634568636690108e-03 0.0000000000000000e+00  1.6276414783113548e+01 2.9300302202677009e-03 0.0000000000000000e+00  2.4064874345805688e+01 -1.4958162990194734e-02 0.0000000000000000e+00  2.4068330881531800e+01 -4.3932133662800358e-03 0.0000000000000000e+00  9.4195340899219122e+00 -4.2997924270287931e-02 0.0000000000000000e+00  9.5885906563357022e+00 -1.3532284450124021e-01 0.