<?xml version="1.0"?>
<VTKFile type="UnstructuredGrid"  version="0.1"  >
<UnstructuredGrid>
<Piece  NumberOfPoints="737" NumberOfCells="1376">
<Points>
<DataArray  type="Float64"  NumberOfComponents="3"  format="ascii">0 0 0  0 2 0  4 2 0  4 0 0  0 0.1249999999997431 0  0 0.2499999999995515 0  0 0.3749999999991878 0  0 0.4999999999988241 0  0 0.6249999999984651 0  0 0.7499999999981061 0  0 0.874999999997747 0  0 0.999999999997388 0  0 1.124999999997712 0  0 1.249999999998036 0  0 1.374999999998359 0  0 1.499999999998683 0  0 1.624999999999012 0  0 1.749999999999342 0  0 1.874999999999671 0  0.1249999999997626 2 0  0.2499999999994824 2 0  0.3749999999992888 2 0  0.4999999999990952 2 0  0.6249999999987335 2 0  0.7499999999983717 2 0  0.87499999999801 2 0  0.9999999999976482 2 0  1.124999999997284 2 0  1.249999999996919 2 0  1.374999999996555 2 0  1.49999999999619 2 0  1.624999999995837 2 0  1.749999999995483 2 0  1.87499999999513 2 0  1.999999999994776 2 0  2.124999999995095 2 0  2.249999999995413 2 0  2.374999999995731 2 0  2.49999999999605 2 0  2.624999999996379 2 0  2.749999999996708 2 0  2.874999999997037 2 0  2.999999999997367 2 0  3.124999999997696 2 0  3.249999999998025 2 0  3.374999999998354 2 0  3.499999999998683 2 0  3.624999999999012 2 0  3.749999999999341 2 0  3.87499999999967 2 0  4 1.875000000000123 0  4 1.750000000000209 0  4 1.625000000000461 0  4 1.500000000000693 0  4 1.375000000001536 0  4 1.250000000002256 0  4 1.125000000003229 0  4 1.000000000004118 0  4 0.8750000000036089 0  4 0.7500000000030995 0  4 0.6250000000025902 0  4 0.5000000000020808 0  4 0.3750000000015605 0  4 0.2500000000010403 0  4 0.12500000000052 0  3.874999999999586 0 0  3.749999999999274 0 0  3.624999999998618 0 0  3.499999999998004 0 0  3.374999999998717 0 0  3.249999999999506 0 0  3.125000000000414 0 0  3.000000000001386 0 0  2.875000000002339 0 0  2.750000000003406 0 0  2.625000000004116 0 0  2.500000000004855 0 0  2.375000000005834 0 0  2.250000000006474 0 0  2.125000000007378 0 0  2.000000000008237 0 0  1.875000000007738 0 0  1.750000000007239 0 0  1.625000000006741 0 0  1.500000000006242 0 0  1.375000000005722 0 0  1.250000000005202 0 0  1.125000000004682 0 0  1.000000000004162 0 0  0.8750000000036411 0 0  0.7500000000031211 0 0  0.625000000002601 0 0  0.500000000002081 0 0  0.3750000000015605 0 0  0.2500000000010405 0 0  0.12500000000052 0 0  2.751943738452744 0.4502303079023504 0  1.750000000006644 0.4330127018922776 0  1.24999999999692 1.566987298109043 0  2.198013603145998 1.55809283687899 0  3.247881315357668 1.576613977471344 0  0.7521186846436931 0.4233860225293321 0  3.604646881608647 0.7183803468350101 0  0.3953531183914658 1.281619653165416 0  1.25035311411272 0.4314082553323813 0  1.500058852358896 0.8445724375661612 0  1.989156378093928 0.8579334422883895 0  1.750000000009022 1.299038105676122 0  0.9973508174755198 0.8076485688783537 0  2.749999999997339 1.566987298107004 0  3.002717843603222 1.188508528991859 0  2.533455241124366 1.190277318175192 0  2.22583414908933 0.4214378737978327 0  3.279641263780507 0.389092528073727 0  3.552608346638475 1.213748434721428 0  0.7206826926270968 1.613777072928224 0  0.4473966578135999 0.7859714703715941 0  2.767860793511576 0.8832772111385303 0  1.749999999995483 1.694100648860432 0  1.258589614778837 1.151739544308598 0  3.633974596214294 0.3660254037857282 0  3.633974596214256 1.633974596214794 0  0.366025403785061 1.633974596214344 0  0.3660254037865152 0.3660254037856426 0  3.187282366407972 0.799919109919273 0  0.8210937919434733 1.200395787834862 0  2.382690224779792 0.8121957412458931 0  2.148692841347422 1.187388232457183 0  0.7223737376445598 0.7968100196249739 0  0.6342452248785366 0.993183629103228 0  0.9092223047094965 1.004022178356608 0  3.277663095120849 1.201128481856643 0  3.369945356523223 1.00683377232035 0  3.095000105005597 0.9942138194555659 0  0.8747347510596064 0.6155172957038428 0  0.5997576712286465 0.604678746450463 0  3.125299579480445 1.382561253231602 0  3.400244830998071 1.395181206096386 0  1.500000000002971 1.433012701892583 0  1.50429480739393 1.22538882499236 0  1.254294807387878 1.359363421208821 0  1.499999999996201 1.630543973484738 0  1.750000000002252 1.496569377268277 0  1.97400680157751 1.428565471277556 0  1.97400680157074 1.626096742869711 0  3.578627614123561 0.9660643907782188 0  3.395964624008309 0.7591497283771416 0  0.4213748881025329 1.033795561768505 0  0.6082234551674696 1.241007720500139 0  3.802323440804323 0.6091901734185454 0  3.802323440804323 0.8591901734195642 0  1.001235899378206 0.4273971389308567 0  1.12385196579412 0.6195284121053675 0  1.500176557059682 0.4322104786123294 0  1.375205983235808 0.6379903464492712 0  1.62502942618277 0.6387925697292194 0  2.876358921800281 1.377747913549431 0  2.768086542363794 1.189392923583525 0  2.641727620560853 1.378632308141098 0  1.625000000006443 0.2165063509461388 0  1.87500000000744 0.2165063509461388 0  2.474006801571669 1.562540067492997 0  2.365734422135182 1.374185077527091 0  0.1976765591957329 1.39080982658205 0  0.1976765591957329 1.140809826581402 0  1.375176557059481 0.2157041276661906 0  2.998940657677504 1.571800637789174 0  0.8760593423239273 0.2116930112646661 0  1.125176557058441 0.2157041276661906 0  2.112917074548784 0.2107189368989164 0  2.362917074547092 0.2107189368989164 0  3.373940657678175 1.788306988735672 0  3.123940657677517 1.788306988735672 0  2.874999999997353 1.783493649053502 0  2.349006801571024 1.779046418439495 0  2.624999999996695 1.783493649053502 0  1.248704834917208 0.8261105032222574 0  2.099006801570387 1.779046418439495 0  0.6260593423228871 0.2116930112646661 0  1.744607615226412 0.8512529399272754 0  1.869578189050286 0.6454730720903336 0  2.625971869228799 0.2251151539511752 0  2.488888943771037 0.4358340908500916 0  1.987917074547987 0.4272252878450552 0  1.625029426183959 1.071805271621142 0  1.869578189051475 1.078485773982256 0  1.374999999996555 1.783493649054522 0  1.124999999997284 1.783493649054522 0  2.875971869227065 0.2251151539511752 0  2.107495263591629 0.6396856580431112 0  3.015792501116626 0.4196614179880387 0  2.969613052430358 0.6250747089108117 0  3.233461815094239 0.5945058189965 0  0.9853413463120082 1.590382185518634 0  1.035546895970196 1.383691542971953 0  0.7708882422852851 1.407086430381543 0  2.75990226598216 0.6667537595204404 0  2.977571579959774 0.8415981605289016 0  1.039841703361155 1.17606766607173 0  2.17335322224671 1.372740534668087 0  1.949346420678222 1.243213169066653 0  3.776304173319237 1.106874217362773 0  3.776304173319237 1.35687421736106 0  3.139820631890947 0.1945462640368635 0  3.389820631889256 0.1945462640368635 0  0.2236983289068 0.892985735184491 0  0.2236983289068 0.6429857351852091 0  0.8603413463123726 1.806888536464112 0  0.610341346313096 1.806888536464112 0  1.874999999995129 1.847050324430216 0  1.379324233568866 0.9981559909373798 0  1.624999999995837 1.847050324430216 0  3.566987298106149 0.1830127018928641 0  3.816987298107147 0.1830127018928641 0  3.816987298107128 1.566987298107743 0  3.816987298107128 1.816987298107397 0  0.1830127018932576 0.1830127018928213 0  0.4330127018942981 0.1830127018928213 0  0.1830127018932576 0.4330127018922334 0  3.566987298106469 1.816987298107397 0  0.4330127018920781 1.816987298107172 0  0.1830127018925305 1.816987298107172 0  0.1830127018925305 1.566987298106514 0  3.816987298107147 0.4330127018939045 0  2.304262186934561 0.616816807521863 0  2.567316981616268 0.6312130245741218 0  2.575275509145684 0.8477364761922117 0  3.593291471426365 1.42386151546811 0  0.4067110308000575 0.5759984370786184 0  3.4568079299974 0.3775589659297276 0  0.5433540482060789 1.623875834571284 0  2.885289318557399 1.035892870065195 0  2.650658017317971 1.036777264656861 0  1.127970216127178 0.9796940565934761 0  3.61931073891147 0.5422028753103691 0  3.440927955785962 1.605294286843069 0  0.5590720442151041 0.3947057131574874 0  0.3806892610882634 1.45779712468988 0  2.068924609720675 1.022660837372786 0  2.341074041235895 1.188832775316187 0  2.18592330143686 0.8350645917671413 0  3.442144072694577 0.5537364374543685 0  0.5580179055092813 1.44769836304682 0  2.458072732952079 1.001236529710542 0  2.265691533063607 0.9997919868515381 0  0.8598622775600397 0.8022292942516638 0  0.8157980211770282 0.9004160989907908 0  0.9532865610925081 0.9058353736174807 0  0.6783094812615482 0.8949968243641009 0  0.7717337647940166 0.9986029037299178 0  0.5848851977290799 0.791390744998284 0  0.5408209413460683 0.889577549737411 0  0.727669508411005 1.096789708469045 0  0.8651580483264849 1.102208983095735 0  3.140190469362035 1.194818505424251 0  3.186331600063223 1.097671150656105 0  3.04885897430441 1.091361174223712 0  3.323804225822036 1.103981127088497 0  3.23247273076441 1.000523795887958 0  3.415135720879662 1.207438458289035 0  3.461276851580849 1.110291103520889 0  3.278613861465598 0.9033764411198115 0  3.141141235706785 0.8970664646874194 0  0.9360427842675632 0.7115829322910983 0  0.7985542443520831 0.7061636576644084 0  0.7372462111441265 0.6100980210771529 0  0.6610657044366032 0.7007443830377185 0  0.8134267178516498 0.5194516591165874 0  0.6759381779361698 0.5140323844898975 0  0.5235771645211232 0.6953251084110286 0  3.064008711541834 1.28553489111173 0  3.201481337300647 1.291844867544123 0  3.262772205239258 1.388871229663994 0  3.33895396305946 1.298154843976515 0  3.186590447419056 1.479587615351473 0  3.324063073177869 1.485897591783865 0  3.476426588818273 1.304464820408907 0  1.374999999999945 1.500000000000813 0  1.377147403695425 1.396188061550702 0  1.252147403692399 1.463175359658932 0  1.50214740369845 1.329200763442472 0  1.379294807390904 1.292376123100591 0  1.625000000005997 1.366025403784353 0  1.627147403701476 1.262213465334241 0  1.381442211086383 1.188564184650479 0  1.256442211083358 1.25555148275871 0  1.625000000002612 1.46479103958043 0  1.750000000005637 1.3978037414722 0  1.499999999999586 1.53177833768866 0  1.62499
[...]
<PointData  Vectors="U"> 
<DataArray  type="Float64"  Name="U"  NumberOfComponents="3" format="ascii">2.3721395631483613e-01 -2.1827823829695661e-03 0.0000000000000000e+00  2.3725488465357156e-01 2.1601832876152606e-03 0.0000000000000000e+00  1.5946407162613176e-02 1.4099088886131803e-02 0.0000000000000000e+00  1.5987009682256800e-02 -1.4117970461821306e-02 0.0000000000000000e+00  3.2714068013434322e-01 -3.9766587066001523e-05 0.0000000000000000e+00  4.6722161366316067e-01 2.3936186507209569e-03 0.0000000000000000e+00  6.1776408914910008e-01 4.3015987252888795e-03 0.0000000000000000e+00  7.5630800312335034e-01 5.1258520197489952e-03 0.0000000000000000e+00  8.7043462102573677e-01 4.8479518956455556e-03 0.0000000000000000e+00  9.5415977972718247e-01 3.6812688406797096e-03 0.0000000000000000e+00  1.0049685444216701e+00 1.9738712224962349e-03 0.0000000000000000e+00  1.0220345741915198e+00 2.3379848707872065e-05 0.0000000000000000e+00  1.0051254999354604e+00 -1.9423326519082244e-03 0.0000000000000000e+00  9.5436789315263248e-01 -3.6644380049500819e-03 0.0000000000000000e+00  8.7063492876460713e-01 -4.8411083072553082e-03 0.0000000000000000e+00  7.5647541775101046e-01 -5.1178828094811599e-03 0.0000000000000000e+00  6.1787180115845441e-01 -4.3149106597726201e-03 0.0000000000000000e+00  4.6728982562588678e-01 -2.4107147007793855e-03 0.0000000000000000e+00  3.2718775951953483e-01 2.1328255545345040e-05 0.0000000000000000e+00  3.5944665635395695e-02 6.3527904912207269e-03 0.0000000000000000e+00  3.2682139054728725e-04 4.6277406028759028e-03 0.0000000000000000e+00  -5.4363298882170348e-03 1.9377647154750633e-03 0.0000000000000000e+00  -5.1093735940154891e-03 -3.0020260031518218e-04 0.0000000000000000e+00  -3.7189405079944174e-03 -1.7092639660304040e-03 0.0000000000000000e+00  -2.5036831451103842e-03 -2.4657815570606682e-03 0.0000000000000000e+00  -1.6351188155544173e-03 -2.7460489821311308e-03 0.0000000000000000e+00  -1.0561160598256880e-03 -2.7083435207879290e-03 0.0000000000000000e+00  -6.9198459014897882e-04 -2.5585075850237554e-03 0.0000000000000000e+00  -4.5410073464459595e-04 -2.3283741109308294e-03 0.0000000000000000e+00  -2.9021930992285873e-04 -2.0582923702565487e-03 0.0000000000000000e+00  -1.7213277375343778e-04 -1.7395751589994912e-03 0.0000000000000000e+00  -7.6941241164051505e-05 -1.3094175491670261e-03 0.0000000000000000e+00  -2.7806160160155840e-05 -8.2286567711973646e-04 0.0000000000000000e+00  -1.4758890134796870e-05 -3.6067929052812416e-04 0.0000000000000000e+00  -2.9361896048667626e-05 4.7931321851052473e-06 0.0000000000000000e+00  -6.1919662504280874e-05 2.2839380253054196e-04 0.0000000000000000e+00  -8.4732012338271031e-05 4.1665151150312944e-04 0.0000000000000000e+00  -1.0008567488035820e-04 6.1981510105439067e-04 0.0000000000000000e+00  -1.1011069924366318e-04 8.7010731668032797e-04 0.0000000000000000e+00  -1.1203796957044959e-04 1.2104180623933346e-03 0.0000000000000000e+00  -1.1214113473429200e-04 1.6246845079618242e-03 0.0000000000000000e+00  -1.1135703307544867e-04 2.1269384475239113e-03 0.0000000000000000e+00  -1.1294208270615107e-04 2.7348546358456080e-03 0.0000000000000000e+00  -1.3223661762351587e-04 3.4921909464617155e-03 0.0000000000000000e+00  -1.8597735864199665e-04 4.4638575727523801e-03 0.0000000000000000e+00  -2.9557853208649082e-04 5.7609671019702002e-03 0.0000000000000000e+00  -4.2460045261445326e-04 7.5569161996589867e-03 0.0000000000000000e+00  -5.9377763296906679e-04 9.6042685016038774e-03 0.0000000000000000e+00  -2.2425904521633497e-04 1.1859215345034558e-02 0.0000000000000000e+00  2.8304061937833914e-03 1.3706749562914854e-02 0.0000000000000000e+00  2.6196915492946532e-01 9.0412754793104348e-03 0.0000000000000000e+00  4.6820954689864447e-01 6.0422332385320094e-03 0.0000000000000000e+00  6.4149285054148630e-01 4.2767135205211016e-03 0.0000000000000000e+00  7.8345094544511007e-01 3.1025040562674116e-03 0.0000000000000000e+00  8.9279376839434843e-01 2.0448361516348873e-03 0.0000000000000000e+00  9.7110159175109867e-01 1.2430409717833794e-03 0.0000000000000000e+00  1.0181070512905563e+00 5.4619857765674613e-04 0.0000000000000000e+00  1.0337556721217951e+00 -1.3378483515704499e-04 0.0000000000000000e+00  1.0180480827644074e+00 -6.9034151790527522e-04 0.0000000000000000e+00  9.7102479595262647e-01 -1.3062689786993969e-03 0.0000000000000000e+00  8.9280909270728603e-01 -2.0212531989459003e-03 0.0000000000000000e+00  7.8397970306776177e-01 -3.0262220583811821e-03 0.0000000000000000e+00  6.4158123561458613e-01 -4.2799666304775951e-03 0.0000000000000000e+00  4.6822804785410965e-01 -6.0447680007681900e-03 0.0000000000000000e+00  2.6198452793807014e-01 -9.0525845541303395e-03 0.0000000000000000e+00  2.8632298905159836e-03 -1.3728691966904783e-02 0.0000000000000000e+00  -2.0059635427201696e-04 -1.1883389785498322e-02 0.0000000000000000e+00  -5.7887516107912396e-04 -9.6256525409922442e-03 0.0000000000000000e+00  -4.1587431114430276e-04 -7.6198468534470314e-03 0.0000000000000000e+00  -3.0432947717497981e-04 -5.7079619086446987e-03 0.0000000000000000e+00  -2.1592959113798433e-04 -4.3423589885885740e-03 0.0000000000000000e+00  -1.8445639370089339e-04 -3.3109088543818634e-03 0.0000000000000000e+00  -1.8133693259454452e-04 -2.5153438713718282e-03 0.0000000000000000e+00  -1.9129938165660676e-04 -1.9690848164807327e-03 0.0000000000000000e+00  -1.9141833532806854e-04 -1.5414148259799098e-03 0.0000000000000000e+00  -1.8298353573699156e-04 -1.1906968900406228e-03 0.0000000000000000e+00  -1.6508189237301899e-04 -8.6710838565108854e-04 0.0000000000000000e+00  -1.3420597944076510e-04 -5.4466826502279375e-04 0.0000000000000000e+00  -9.8601552840145705e-05 -2.2424757074665321e-04 0.0000000000000000e+00  -5.9982443870458071e-05 7.9289402994307148e-05 0.0000000000000000e+00  -2.4626825405566888e-05 3.5810572598931353e-04 0.0000000000000000e+00  -3.4080295007579595e-06 6.1076962020463141e-04 0.0000000000000000e+00  -2.1617128893303342e-07 8.6436400922820572e-04 0.0000000000000000e+00  -2.1875950834197002e-05 1.1386084512734840e-03 0.0000000000000000e+00  -7.4462455598071916e-05 1.4466989287072968e-03 0.0000000000000000e+00  -1.6793048259341637e-04 1.7896460752587207e-03 0.0000000000000000e+00  -3.1941944148015667e-04 2.1504263416385091e-03 0.0000000000000000e+00  -5.5903249909739655e-04 2.4888881360946281e-03 0.0000000000000000e+00  -9.3530422938605006e-04 2.7316593864131168e-03 0.0000000000000000e+00  -1.5232432042349231e-03 2.7707018139488241e-03 0.0000000000000000e+00  -2.4059843067159993e-03 2.4662881282055699e-03 0.0000000000000000e+00  -3.6272287081772275e-03 1.6756943808622800e-03 0.0000000000000000e+00  -5.0312188603999497e-03 2.3764597438988709e-04 0.0000000000000000e+00  -5.4040915479712133e-03 -2.0072496668698293e-03 0.0000000000000000e+00  3.4517472240656709e-04 -4.6831581095100510e-03 0.0000000000000000e+00  3.5942927399392442e-02 -6.3917165602759467e-03 0.0000000000000000e+00  6.9714350473577458e-01 -1.1313196009300991e-03 0.0000000000000000e+00  6.7761542695796473e-01 6.2864975473863704e-04 0.0000000000000000e+00  6.7795655875517835e-01 -1.9517718771518916e-03 0.0000000000000000e+00  6.8837016900351167e-01 7.6572276288724956e-05 0.0000000000000000e+00  6.6522862244102443e-01 2.6283108374218853e-03 0.0000000000000000e+00  6.6613687517285458e-01 6.0901571823241650e-03 0.0000000000000000e+00  9.1746207224079757e-01 -1.5859658441049196e-03 0.0000000000000000e+00  9.0950008062614718e-01 -6.4426674189574044e-03 0.0000000000000000e+00  6.7516373220896009e-01 1.9251927095208657e-03 0.0000000000000000e+00  9.7399960935679453e-01 4.2710558169344417e-04 0.0000000000000000e+00  9.7869881019343741e-01 3.5641812488805124e-05 0.0000000000000000e+00  9.1039812498410266e-01 -3.9974773266027164e-04 0.0000000000000000e+00  9.5825084785870418e-01 1.7148503149300807e-03 0.0000000000000000e+00  6.7697906297455601e-01 1.1691215093801929e-03 0.0000000000000000e+00  9.6155062154641380e-01 6.3837251671149033e-04 0.0000000000000000e+00  9.6238142486599731e-01 1.4811971868836370e-04 0.0000000000000000e+00  6.6415272814622106e-01 -1.0382419660983429e-04 0.0000000000000000e+00  6.2403514140207095e-01 -2.8890550156065184e-03 0.0000000000000000e+00  9.5130781287108535e-01 1.1530242076622345e-03 0.0000000000000000e+00  6.2209294758590905e-01 -6.5124904351296833e-03 0.0000000000000000e+00  9.4361806421727701e-01 4.6736274749395804e-03 0.0000000000000000e+00  9.8354606149646795e-01 -3.1161073170364562e-04 0.0000000000000000e+00  5.1629283552788974e-01 -7.2893798823305098e-04 0.0000000000000000e+00  9.7306234678183035e-01 -6.2053085287494384e-04 0.0000000000000000e+00  5.9442237606560799e-01 -4.2296964594791334e-03 0.0000000000000000e+00  5.9446744357326364e-01 4.2549129726532908e-03 0.0000000000000000e+00  5.9810760138117702e-01 -1.4843833011262891e-02 0.0000000000000000e+00  5.9810194302801334e-01 1.4846453275771616e-02 0.0000000000000000e+00  9.5738640132957165e-01 -8.3204817844773830e-04 0.0000000000000000e+00  9.5460454629175207e-01 -2.5418354019961882e-03 0.0000000000000000e+00  9.6345021780117279e-01 -2.1883702586685384e-04 0.0000000000000000e+00  9.6249620500157795e-01 -1.2307595287307325e-04 0.0000000000000000e+00  9.5171037659653523e-01 3.1857436675818713e-03 0.0000000000000000e+00  9.9099406446047955e-01 1.7582244755204757e-04 0.0000000000000000e+00  9.9444139647035157e-01 1.3441758148609534e-05 0.0000000000000000e+00  9.5621623997546201e-01 9.3584614176101585e-04 0.0000000000000000e+00  9.9648294846722174e-01 8.0476170780360672e-05 0.0000000000000000e+00  9.9704751477040721e-01 -1.8164552008472661e-05 0.0000000000000000e+00  8.4836582381794079e-01 3.8766592603517603e-03 0.0000000000000000e+00  8.3771282018131443e-01 7.1531615231826533e-03 0.0000000000000000e+00  8.5095668979624783e-01 1.4870563463674907e-03 0.0000000000000000e+00  8.4037563265900050e-01 1.9944964907432292e-03 0.0000000000000000e+00  8.1108481692851486e-01 -1.0259269864311528e-03 0.0000000000000000e+00  9.4735747048515295e-01 -5.1582147982575082e-04 0.0000000000000000e+00  8.6864157422350097e-01 -1.4475466170874129e-03 0.0000000000000000e+00  6.0129837592420077e-01 -1.2528834996939271e-03 0.0000000000000000e+00  7.5230694532135700e-01 -6.0436897858615621e-04 0.0000000000000000e+00  8.1530755243536357e-01 -2.0898865031799554e-04 0.0000000000000000e+00  6.0713584172763146e-01 -2.7825745911384678e-04 0.0000000000000000e+00  9.9578531446696528e-01 -1.8022131829945417e-04 0.0000000000000000e+00  9.3849526318111220e-01 -1.1932709474292928e-03 0.0000000000000000e+00  9.8709355845867219e-01 -7.1525763790874532e-04 0.0000000000000000e+00  9.3378485549980106e-01 -4.4728695270345818e-03 0.0000000000000000e+00  8.5024680487603821e-01 -2.3933634746079960e-03 0.0000000000000000e+00  9.8351289358165706e-01 -8.3911274582060052e-04 0.0000000000000000e+00  6.7033192736857350e-01 3.3110157228979737e-03 0.0000000000000000e+00  8.5251969045350062e-01 2.1476775817412530e-03 0.0000000000000000e+00  6.7640226385768154e-01 1.1442259203298180e-03 0.0000000000000000e+00  8.6697723716240394e-01 1.1517457630173780e-03 0.0000000000000000e+00  8.6812656201079941e-01 6.2796607746763928e-04 0.0000000000000000e+00  8.5526707854521544e-01 1.0246651796261279e-03 0.0000000000000000e+00  9.6203553557838983e-01 3.8162705797116796e-04 0.0000000000000000e+00  8.5511390798737330e-01 5.8365072442566020e-04 0.0000000000000000e+00  3.8553314211999296e-01 1.0360431438803100e-03 0.0000000000000000e+00  3.8565027334191726e-01 5.2576474824076261e-04 0.0000000000000000e+00  6.8265307277565157e-01 5.4972087591750819e-04 0.0000000000000000e+00  8.5882702685117862e-01 1.4271901601228308e-04 0.0000000000000000e+00  8.3748246478467825e-01 -8.8793333531143569e-03 0.0000000000000000e+00  9.7134459425184594e-01 -2.5404231554933621e-03 0.0000000000000000e+00  3.8408181107198763e-01 1.6609115214928395e-03 0.0000000000000000e+00  6.7118446530796694e-01 1.8380729662402385e-03 0.0000000000000000e+00  3.7788392232328460e-01 3.7376520148678745e-03 0.0000000000000000e+00  3.8391551813146785e-01 2.4931110461372894e-03 0.0000000000000000e+00  3.7655356694976128e-01 8.2981095539387312e-05 0.0000000000000000e+00  3.7651189256826140e-01 -4.1544503801114010e-04 0.0000000000000000e+00  3.7617392689470758e-01 4.4950456488424386e-03 0.0000000000000000e+00  3.7715007568328029e-01 2.9972119054249360e-03 0.0000000000000000e+00  3.8521374974239581e-01 1.9137037914629192e-03 0.0000000000000000e+00  3.9268396828421404e-01 5.0573734100981720e-04 0.0000000000000000e+00  3.8551699853325039e-01 1.1385792418501246e-03 0.0000000000000000e+00  9.6676813404310991e-01 8.6705932383554160e-04 0.0000000000000000e+00  3.9263121933312412e-01 -2.3729619526910441e-05 0.0000000000000000e+00  3.7970617223659714e-01 6.3024579432358254e-03 0.0000000000000000e+00  9.7649778348165150e-01 2.0801065405683735e-04 0.0000000000000000e+00  8.7319766110137675e-01 3.0795215671364213e-04 0.0000000000000000e+00  3.9896606781779093e-01 -1.0521777227440138e-03 0.0000000000000000e+00  6.8077180047319530e-01 -5.9350147757272547e-04 0.0000000000000000e+00  6.7109883862599562e-01 2.5431996248132573e-04 0.0000000000000000e+00  9.9323099748409038e-01 -8.0585680425560827e-05 0.0000000000000000e+00  9.9254454166844741e-01 -1.4578776634026900e-04 0.0000000000000000e+00  3.8537023720084806e-01 -1.7359438000340427e-03 0.0000000000000000e+00  3.8529210458823449e-01 -2.5921537136900695e-03 0.0000000000000000e+00  3.9867515515207097e-01 -1.8566193699053241e-03 0.0000000000000000e+00  8.6910812660119796e-01 2.3240959819742512e-05 0.0000000000000000e+00  6.6140157526925758e-01 -1.8810976863091865e-03 0.0000000000000000e+00  8.5728951159524236e-01 -1.1309394940449140e-03 0.0000000000000000e+00  8.3261724617542610e-01 -1.7750452549617790e-03 0.0000000000000000e+00  6.4994349003078800e-01 -3.4478998409768090e-03 0.0000000000000000e+00  8.4998254522741834e-01 -2.5375853110947968e-03 0.0000000000000000e+00  8.3022860420246825e-01 -5.0953552953982573e-03 0.0000000000000000e+00  8.8720518941281123e-01 -7.4690052630080458e-04 0.0000000000000000e+00  9.7234152691351960e-01 -5.2450135295822127e-04 0.0000000000000000e+00  9.6493978481332587e-01 -1.3067839341432737e-03 0.0000000000000000e+00  8.5991352651753239e-01 -4.4544763592564707e-05 0.0000000000000000e+00  9.3960453160713453e-01 -2.1987693370435096e-04 0.0000000000000000e+00  9.9035942286608636e-01 5.5356401865992375e-04 0.0000000000000000e+00  8.7415700376983962e-01 2.1477649103789362e-03 0.0000000000000000e+00  3.4980266666820875e-01 -3.0759032643047071e-03 0.0000000000000000e+00  3.4881602608131806e-01 -4.6730966127753347e-03 0.0000000000000000e+00  9.7860723632605595e-01 1.8972758490438271e-03 0.0000000000000000e+00  8.6193900155714931e-01 8.1447518881583494e-03 0.0000000000000000e+00  3.4825032020321167e-01 -3.7723648625404109e-03 0.0000000000000000e+00  3.5015806239134006e-01 -6.1492854279153204e-03 0.0000000000000000e+00  2.8187074537865608e-01 -4.9634360272464038e-04 0.0000000000000000e+00  9.9733815410164639e-01 9.5475288196574735e-05 0.0000000000000000e+00  2.8176253020322251e-01 -1.0997315025051582e-03 0.0000000000000000e+00  3.2952845010027870e-01 -6.1079234961134328e-03 0.0000000000000000e+00  3.3439563165485348e-01 -7.4601803683858568e-03 0.0000000000000000e+00  6.8209211616146215e-01 3.8713694159264646e-03 0.0000000000000000e+00  3.3437196505732347e-01 7.4590593206104207e-03 0.0000000000000000e+00  3.5870030159544264e-01 1.5446120335450338e-02 0.0000000000000000e+00  3.3824518933376346e-01 9.3529124343816952e-03 0.0000000000000000e+00  6.7514879135050443e-01 1.4942912247708532e-02 0.0000000000000000e+00  3.2954603345875461e-01 6.1306379028778935e-03 0.0000000000000000e+00  3.3829428338423656e-01 -9.3606191620710308e-03 0.0000000000000000e+00  3.5874034284453615e-01 -1.5475058125125660e-02 0.0000000000000000e+00  6.7516613704601203e-01 -1.4980298281349809e-02 0.0000000000000000e+00  6.8204919124993346e-01 -3.8539686996192125e-03 0.0000000000000000e+00  8.5201615988740986e-01 -2.3288232405500018e-04 0.0000000000000000e+00  8.6262620384343869e-01 -5.8010297658190810e-04 0.0000000000000000e+00  9.7503020985813837e-01 -2.7424761656550756e-04 0.0000000000000000e+00  8.1717672499508920e-01 2.4513579520434583e-03 0.0000000000000000e+00  8.1210496699178170e-01 1.0182184601843888e-02 0.0000000000000000e+00  6.0901665372391045e-01 -3.5937485085401925e-03 0.0000000000000000e+00  6.1013903481740484e-01 -1.0160378308449243e-02 0.0000000000000000e+00  9.9617309980084345e-01 4.1825611959089414e-05 0.0000000000000000e+00  9.9664841958478700e-01 1.6654822526980100e-05 0.0000000000000000e+00  9.9564636812525698e-01 1.6610459146232815e-04 0.0000000000000000e+00  7.8733577248407249e-01 -2.7261245224399541e-03 0.0000000000000000e+00  6.3021140189941238e-01 3.4404379873959560e-03 0.0000000000000000e+00  6.3250485538404189e-01 9.8287849611761839e-03 0.0000000000000000e+00  7.8286895349531349e-01 -1.1306655735111006e-02 0.0000000000000000e+00  9.9800650494883458e-01 -1.2623253825090077e-04 0.0000000000000000e+00  9.6282836759347235e-01 -1.0592363594582417e-06 0.0000000000000000e+00  9.7151416598373830e-01 -9.5962078770764434e-05 0.0000000000000000e+00  7.9723625744736137e-01 -2.3820715748236222e-03 0.0000000000000000e+00  7.9414699945165157e-01 -8.5385250855618024e-03 0.0000000000000000e+00  9.9837745664854993e-01 -5.2265032451792083e-05 0.0000000000000000e+00  9.9849526483620210e-01 -8.7217216031057845e-05 0.0000000000000000e+00  9.5533549790120920e-01 2.3755130806416298e-03 0.0000000000000000e+00  9.8365245829368608e-01 1.3882298655917332e-03 0.0000000000000000e+00  9.8598856906155863e-01 9.8257120061551531e-04 0.0000000000000000e+00  9.8081129293514591e-01 1.8403601677644569e-03 0.0000000000000000e+00  9.9293395161664610e-01 1.0080843825690817e-04 0.0000000000000000e+00  9.4764722688171965e-01 4.0346065134360572e-03 0.0000000000000000e+00  9.7771592612185942e-01 2.2334886971198797e-03 0.0000000000000000e+00  9.8327048294073249e-01 -1.4570666125833676e-03 0.0000000000000000e+00  9.8388449357729035e-01 -1.1652922295331061e-03 0.0000000000000000e+00  9.5902917533640708e-01 7.9718428545645409e-04 0.0000000000000000e+00  9.8731366431437906e-01 4.4913639786870992e-04 0.0000000000000000e+00  9.8877576021331681e-01 3.2347664537190637e-04 0.0000000000000000e+00  9.8575138233308890e-01 5.4021072752621197e-04 0.0000000000000000e+00  9.9677551291347988e-01 5.9888276168511582e-05 0.0000000000000000e+00  9.5346843433539519e-01 1.0569674836404795e-03 0.0000000000000000e+00  9.8437534662632342e-01 5.8481565329632701e-04 0.0000000000000000e+00  9.8742829478842209e-01 -3.9791943348369278e-04 0.0000000000000000e+00  9.8651958521493266e-01 -3.9610495627250778e-04 0.0000000000000000e+00  9.1248131518110931e-01 2.7526172914440162e-03 0.0000000000000000e+00  9.0831944229734152e-01 3.7839821930576029e-03 0.0000000000000000e+00  8.4327932234712510e-01 5.3481830929923355e-03 0.0000000000000000e+00  9.0365601596097489e-01 5.0399102950789178e-03 0.0000000000000000e+00  7.6616645296191976e-01 5.0302599209122306e-03 0.0000000000000000e+00  7.6035478600662953e-01 7.0038765323776064e-03 0.0000000000000000e+00  8.9854870673574827e-01 6.3328453279668153e-03 0.0000000000000000e+00  9.1573843487617368e-01 1.0466594130761268e-03 0.0000000000000000e+00  9.1175720495465606e-01 1.2377405824662859e-03 0.0000000000000000e+00  8.4567289571678950e-01 1.7404530119237050e-03 0.0000000000000000e+00  9.0769714248342670e-01 1.4197143525093024e-03 0.0000000000000000e+00  7.6738045366908081e-01 2.0022006914907236e-03 0.0000000000000000e+00  7.6079681089050599e-01 2.3529606447897080e-03 0.0000000000000000e+00  9.0383553755578194e-01 1.5998624716469468e-03 0.0000000000000000e+00  7.4865984449071610e-01 -1.4382818957260034e-03 0.0000000000000000e+00  8.4129095427631240e-01 -1.2212330860048924e-03 0.0000000000000000e+00  7.8393207855341629e-01 -1.7470666256628031e-03 0.0000000000000000e+00  8.9001058020509716e-01 -7.9452075620901940e-04 0.0000000000000000e+00  9.1235893570376103e-01 -9.2108752951128