<?xml version="1.0"?>
<VTKFile type="UnstructuredGrid"  version="0.1"  >
<UnstructuredGrid>
<Piece  NumberOfPoints="11201" NumberOfCells="22016">
<Points>
<DataArray  type="Float64"  NumberOfComponents="3"  format="ascii">0 0 0  0 2 0  4 2 0  4 0 0  0 0.03124999999994099 0  0 0.06249999999988225 0  0 0.09374999999981269 0  0 0.1249999999997431 0  0 0.1562499999996952 0  0 0.1874999999996473 0  0 0.2187499999995994 0  0 0.2499999999995515 0  0 0.2812499999994605 0  0 0.3124999999993696 0  0 0.3437499999992787 0  0 0.3749999999991878 0  0 0.4062499999990968 0  0 0.4374999999990059 0  0 0.468749999998915 0  0 0.4999999999988241 0  0 0.5312499999987343 0  0 0.5624999999986446 0  0 0.5937499999985549 0  0 0.6249999999984651 0  0 0.6562499999983753 0  0 0.6874999999982856 0  0 0.7187499999981959 0  0 0.7499999999981061 0  0 0.7812499999980163 0  0 0.8124999999979265 0  0 0.8437499999978368 0  0 0.874999999997747 0  0 0.9062499999976572 0  0 0.9374999999975675 0  0 0.9687499999974778 0  0 0.999999999997388 0  0 1.031249999997469 0  0 1.06249999999755 0  0 1.093749999997631 0  0 1.124999999997712 0  0 1.156249999997793 0  0 1.187499999997874 0  0 1.218749999997955 0  0 1.249999999998036 0  0 1.281249999998116 0  0 1.312499999998197 0  0 1.343749999998278 0  0 1.374999999998359 0  0 1.40624999999844 0  0 1.437499999998521 0  0 1.468749999998602 0  0 1.499999999998683 0  0 1.531249999998765 0  0 1.562499999998848 0  0 1.59374999999893 0  0 1.624999999999012 0  0 1.656249999999095 0  0 1.687499999999177 0  0 1.718749999999259 0  0 1.749999999999342 0  0 1.781249999999424 0  0 1.812499999999506 0  0 1.843749999999588 0  0 1.874999999999671 0  0 1.906249999999753 0  0 1.937499999999835 0  0 1.968749999999918 0  0.03124999999994017 2 0  0.06249999999988101 2 0  0.09374999999982181 2 0  0.1249999999997626 2 0  0.1562499999996926 2 0  0.1874999999996225 2 0  0.2187499999995525 2 0  0.2499999999994824 2 0  0.281249999999434 2 0  0.3124999999993856 2 0  0.3437499999993372 2 0  0.3749999999992888 2 0  0.4062499999992404 2 0  0.437499999999192 2 0  0.4687499999991436 2 0  0.4999999999990952 2 0  0.5312499999990048 2 0  0.5624999999989143 2 0  0.5937499999988239 2 0  0.6249999999987335 2 0  0.6562499999986431 2 0  0.6874999999985526 2 0  0.7187499999984622 2 0  0.7499999999983717 2 0  0.7812499999982814 2 0  0.8124999999981909 2 0  0.8437499999981005 2 0  0.87499999999801 2 0  0.9062499999979196 2 0  0.9374999999978291 2 0  0.9687499999977387 2 0  0.9999999999976482 2 0  1.031249999997557 2 0  1.062499999997466 2 0  1.093749999997375 2 0  1.124999999997284 2 0  1.156249999997193 2 0  1.187499999997102 2 0  1.218749999997011 2 0  1.249999999996919 2 0  1.281249999996828 2 0  1.312499999996737 2 0  1.343749999996646 2 0  1.374999999996555 2 0  1.406249999996464 2 0  1.437499999996373 2 0  1.468749999996282 2 0  1.49999999999619 2 0  1.531249999996102 2 0  1.562499999996013 2 0  1.593749999995925 2 0  1.624999999995837 2 0  1.656249999995748 2 0  1.68749999999566 2 0  1.718749999995572 2 0  1.749999999995483 2 0  1.781249999995395 2 0  1.812499999995306 2 0  1.843749999995218 2 0  1.87499999999513 2 0  1.906249999995041 2 0  1.937499999994953 2 0  1.968749999994865 2 0  1.999999999994776 2 0  2.031249999994856 2 0  2.062499999994935 2 0  2.093749999995015 2 0  2.124999999995095 2 0  2.156249999995174 2 0  2.187499999995254 2 0  2.218749999995334 2 0  2.249999999995413 2 0  2.281249999995492 2 0  2.312499999995572 2 0  2.343749999995652 2 0  2.374999999995731 2 0  2.406249999995811 2 0  2.43749999999589 2 0  2.46874999999597 2 0  2.49999999999605 2 0  2.531249999996132 2 0  2.562499999996215 2 0  2.593749999996297 2 0  2.624999999996379 2 0  2.656249999996461 2 0  2.687499999996543 2 0  2.718749999996626 2 0  2.749999999996708 2 0  2.78124999999679 2 0  2.812499999996873 2 0  2.843749999996955 2 0  2.874999999997037 2 0  2.90624999999712 2 0  2.937499999997202 2 0  2.968749999997284 2 0  2.999999999997367 2 0  3.031249999997449 2 0  3.062499999997531 2 0  3.093749999997613 2 0  3.124999999997696 2 0  3.156249999997778 2 0  3.18749999999786 2 0  3.218749999997943 2 0  3.249999999998025 2 0  3.281249999998107 2 0  3.312499999998189 2 0  3.343749999998272 2 0  3.374999999998354 2 0  3.406249999998436 2 0  3.437499999998519 2 0  3.468749999998601 2 0  3.499999999998683 2 0  3.531249999998765 2 0  3.562499999998848 2 0  3.59374999999893 2 0  3.624999999999012 2 0  3.656249999999095 2 0  3.687499999999177 2 0  3.718749999999259 2 0  3.749999999999341 2 0  3.781249999999424 2 0  3.812499999999506 2 0  3.843749999999588 2 0  3.87499999999967 2 0  3.906249999999753 2 0  3.937499999999835 2 0  3.968749999999917 2 0  4 1.968749999999995 0  4 1.937500000000006 0  4 1.906250000000052 0  4 1.875000000000123 0  4 1.843750000000195 0  4 1.812500000000267 0  4 1.781250000000238 0  4 1.750000000000209 0  4 1.718750000000278 0  4 1.687500000000338 0  4 1.656250000000387 0  4 1.625000000000461 0  4 1.593750000000559 0  4 1.562500000000623 0  4 1.531250000000661 0  4 1.500000000000693 0  4 1.468750000000894 0  4 1.437500000001101 0  4 1.406250000001338 0  4 1.375000000001536 0  4 1.3437500000018 0  4 1.312500000002047 0  4 1.281250000002151 0  4 1.250000000002256 0  4 1.218750000002538 0  4 1.187500000002735 0  4 1.156250000002984 0  4 1.125000000003229 0  4 1.093750000003425 0  4 1.062500000003664 0  4 1.031250000003841 0  4 1.000000000004118 0  4 0.9687500000039908 0  4 0.9375000000038636 0  4 0.9062500000037361 0  4 0.8750000000036089 0  4 0.8437500000034814 0  4 0.8125000000033542 0  4 0.7812500000032268 0  4 0.7500000000030995 0  4 0.7187500000029721 0  4 0.6875000000028448 0  4 0.6562500000027174 0  4 0.6250000000025902 0  4 0.5937500000024627 0  4 0.5625000000023355 0  4 0.531250000002208 0  4 0.5000000000020808 0  4 0.4687500000019507 0  4 0.4375000000018205 0  4 0.4062500000016904 0  4 0.3750000000015605 0  4 0.3437500000014304 0  4 0.3125000000013003 0  4 0.2812500000011702 0  4 0.2500000000010403 0  4 0.2187500000009102 0  4 0.18750000000078 0  4 0.1562500000006499 0  4 0.12500000000052 0  4 0.09375000000038991 0  4 0.06250000000026001 0  4 0.0312500000001299 0  3.968749999999867 0 0  3.937499999999757 0 0  3.906249999999634 0 0  3.874999999999586 0 0  3.843749999999545 0 0  3.812499999999443 0 0  3.781249999999361 0 0  3.749999999999274 0 0  3.718749999999099 0 0  3.687499999998965 0 0  3.656249999998799 0 0  3.624999999998618 0 0  3.593749999998464 0 0  3.562499999998253 0 0  3.531249999998138 0 0  3.499999999998004 0 0  3.468749999998149 0 0  3.437499999998331 0 0  3.40624999999855 0 0  3.374999999998717 0 0  3.343749999998911 0 0  3.312499999999106 0 0  3.281249999999314 0 0  3.249999999999506 0 0  3.218749999999727 0 0  3.187499999999934 0 0  3.156250000000176 0 0  3.125000000000414 0 0  3.093750000000641 0 0  3.06250000000085 0 0  3.031250000001132 0 0  3.000000000001386 0 0  2.968750000001606 0 0  2.937500000001852 0 0  2.906250000002082 0 0  2.875000000002339 0 0  2.843750000002601 0 0  2.812500000002886 0 0  2.781250000003096 0 0  2.750000000003406 0 0  2.718750000003573 0 0  2.687500000003777 0 0  2.656250000003957 0 0  2.625000000004116 0 0  2.593750000004321 0 0  2.56250000000449 0 0  2.531250000004651 0 0  2.500000000004855 0 0  2.468750000005087 0 0  2.437500000005349 0 0  2.406250000005586 0 0  2.375000000005834 0 0  2.343750000006111 0 0  2.312500000006138 0 0  2.2812500000063 0 0  2.250000000006474 0 0  2.218750000006667 0 0  2.187500000006903 0 0  2.156250000007128 0 0  2.125000000007378 0 0  2.093750000007609 0 0  2.06250000000783 0 0  2.031250000007995 0 0  2.000000000008237 0 0  1.968750000008112 0 0  1.937500000007987 0 0  1.906250000007863 0 0  1.875000000007738 0 0  1.843750000007613 0 0  1.812500000007488 0 0  1.781250000007364 0 0  1.750000000007239 0 0  1.718750000007115 0 0  1.68750000000699 0 0  1.656250000006866 0 0  1.625000000006741 0 0  1.593750000006616 0 0  1.562500000006492 0 0  1.531250000006367 0 0  1.500000000006242 0 0  1.468750000006112 0 0  1.437500000005982 0 0  1.406250000005852 0 0  1.375000000005722 0 0  1.343750000005592 0 0  1.312500000005462 0 0  1.281250000005332 0 0  1.250000000005202 0 0  1.218750000005072 0 0  1.187500000004942 0 0  1.156250000004812 0 0  1.125000000004682 0 0  1.093750000004551 0 0  1.062500000004421 0 0  1.031250000004292 0 0  1.000000000004162 0 0  0.9687500000040314 0 0  0.9375000000039013 0 0  0.9062500000037712 0 0  0.8750000000036411 0 0  0.843750000003511 0 0  0.8125000000033809 0 0  0.7812500000032507 0 0  0.7500000000031211 0 0  0.7187500000029909 0 0  0.6875000000028608 0 0  0.6562500000027311 0 0  0.625000000002601 0 0  0.5937500000024709 0 0  0.5625000000023408 0 0  0.5312500000022107 0 0  0.500000000002081 0 0  0.4687500000019509 0 0  0.4375000000018208 0 0  0.4062500000016906 0 0  0.3750000000015605 0 0  0.3437500000014304 0 0  0.3125000000013003 0 0  0.2812500000011706 0 0  0.2500000000010405 0 0  0.2187500000009104 0 0  0.1875000000007803 0 0  0.1562500000006501 0 0  0.12500000000052 0 0  0.09375000000038991 0 0  0.06250000000025979 0 0  0.03125000000012967 0 0  2.751943738452744 0.4502303079023504 0  1.750000000006644 0.4330127018922776 0  1.24999999999692 1.566987298109043 0  2.198013603145998 1.55809283687899 0  3.247881315357668 1.576613977471344 0  0.7521186846436931 0.4233860225293321 0  3.604646881608647 0.7183803468350101 0  0.3953531183914658 1.281619653165416 0  1.25035311411272 0.4314082553323813 0  1.500058852358896 0.8445724375661612 0  1.989156378093928 0.8579334422883895 0  1.750000000009022 1.299038105676122 0  0.9973508174755198 0.8076485688783537 0  2.749999999997339 1.566987298107004 0  3.002717843603222 1.188508528991859 0  2.533455241124366 1.190277318175192 0  2.22583414908933 0.4214378737978327 0  3.279641263780507 0.389092528073727 0  3.552608346638475 1.213748434721428 0  0.7206826926270968 1.613777072928224 0  0.4473966578135999 0.7859714703715941 0  2.767860793511576 0.8832772111385303 0  1.749999999995483 1.694100648860432 0  1.25
[...]
<PointData  Scalars="fd"> 
<DataArray  type="Float64"  Name="fd"  format="ascii">2.0000000000000000e+00  2.0000000000000000e+00  2.0000000000000000e+00  2.0000000000000000e+00  2.0000000000000000e+00  2.0000000000000000e+00  2.0000000000000000e+00  2.0000000000000000e+00  2.0000000000000000e+00  2.0000000000000000e+00  2.0000000000000000e+00  2.0000000000000000e+00  2.0000000000000000e+00  2.0000000000000000e+00  2.0000000000000000e+00  2.0000000000000000e+00  2.0000000000000000e+00  2.0000000000000000e+00  2.0000000000000000e+00  2.0000000000000000e+00  2.0000000000000000e+00  2.0000000000000000e+00  2.0000000000000000e+00  2.0000000000000000e+00  2.0000000000000000e+00  2.0000000000000000e+00  2.0000000000000000e+00  2.0000000000000000e+00  2.0000000000000000e+00  2.0000000000000000e+00  2.0000000000000000e+00  2.0000000000000000e+00  2.0000000000000000e+00  2.0000000000000000e+00  2.0000000000000000e+00  2.0000000000000000e+00  2.0000000000000000e+00  2.0000000000000000e+00  2.0000000000000000e+00  2.0000000000000000e+00  2.0000000000000000e+00  2.0000000000000000e+00  2.0000000000000000e+00  2.0000000000000000e+00  2.0000000000000000e+00  2.0000000000000000e+00  2.0000000000000000e+00  2.0000000000000000e+00  2.0000000000000000e+00  2.0000000000000000e+00  2.0000000000000000e+00  2.0000000000000000e+00  2.0000000000000000e+00  2.0000000000000000e+00  2.0000000000000000e+00  2.0000000000000000e+00  2.0000000000000000e+00  2.0000000000000000e+00  2.0000000000000000e+00  2.0000000000000000e+00  2.0000000000000000e+00  2.0000000000000000e+00  2.0000000000000000e+00  2.0000000000000000e+00  2.0000000000000000e+00  2.0000000000000000e+00  2.0000000000000000e+00  2.0000000000000000e+00  2.0000000000000000e+00  2.0000000000000000e+00  2.0000000000000000e+00  2.0000000000000000e+00  2.0000000000000000e+00  2.0000000000000000e+00  2.0000000000000000e+00  2.0000000000000000e+00  2.0000000000000000e+00  2.0000000000000000e+00  2.0000000000000000e+00  2.0000000000000000e+00  2.0000000000000000e+00  2.0000000000000000e+00  2.0000000000000000e+00  2.0000000000000000e+00  2.0000000000000000e+00  2.0000000000000000e+00  2.0000000000000000e+00  2.0000000000000000e+00  2.0000000000000000e+00  2.0000000000000000e+00  2.0000000000000000e+00  2.0000000000000000e+00  2.0000000000000000e+00  2.0000000000000000e+00  2.0000000000000000e+00  2.0000000000000000e+00  2.0000000000000000e+00  2.0000000000000000e+00  2.0000000000000000e+00  2.0000000000000000e+00  2.0000000000000000e+00  2.0000000000000000e+00  2.0000000000000000e+00  2.0000000000000000e+00  2.0000000000000000e+00  2.0000000000000000e+00  2.0000000000000000e+00  2.0000000000000000e+00  2.0000000000000000e+00  2.0000000000000000e+00  2.0000000000000000e+00  2.0000000000000000e+00  2.0000000000000000e+00  2.0000000000000000e+00  2.0000000000000000e+00  2.0000000000000000e+00  2.0000000000000000e+00  2.0000000000000000e+00  2.0000000000000000e+00  2.0000000000000000e+00  2.0000000000000000e+00  2.0000000000000000e+00  2.0000000000000000e+00  2.0000000000000000e+00  2.0000000000000000e+00  2.0000000000000000e+00  2.0000000000000000e+00  2.0000000000000000e+00  2.0000000000000000e+00  2.0000000000000000e+00  2.0000000000000000e+00  2.0000000000000000e+00  2.0000000000000000e+00  2.0000000000000000e+00  2.0000000000000000e+00  2.0000000000000000e+00  2.0000000000000000e+00  2.0000000000000000e+00  2.0000000000000000e+00  2.0000000000000000e+00  2.0000000000000000e+00  2.0000000000000000e+00  2.0000000000000000e+00  2.0000000000000000e+00  2.0000000000000000e+00  2.0000000000000000e+00  2.0000000000000000e+00  2.0000000000000000e+00  2.0000000000000000e+00  2.0000000000000000e+00  2.0000000000000000e+00  2.0000000000000000e+00  2.0000000000000000e+00  2.0000000000000000e+00  2.0000000000000000e+00  2.0000000000000000e+00  2.0000000000000000e+00  2.0000000000000000e+00  2.0000000000000000e+00  2.0000000000000000e+00  2.0000000000000000e+00  2.0000000000000000e+00  2.0000000000000000e+00  2.0000000000000000e+00  2.0000000000000000e+00  2.0000000000000000e+00  2.0000000000000000e+00  2.0000000000000000e+00  2.0000000000000000e+00  2.0000000000000000e+00  2.0000000000000000e+00  2.0000000000000000e+00  2.0000000000000000e+00  2.0000000000000000e+00  2.0000000000000000e+00  2.0000000000000000e+00  2.0000000000000000e+00  2.0000000000000000e+00  2.0000000000000000e+00  2.0000000000000000e+00  2.0000000000000000e+00  2.0000000000000000e+00  2.0000000000000000e+00  2.0000000000000000e+00  2.0000000000000000e+00  2.0000000000000000e+00  2.0000000000000000e+00  2.0000000000000000e+00  2.0000000000000000e+00  2.0000000000000000e+00  2.0000000000000000e+00  2.0000000000000000e+00  2.0000000000000000e+00  2.0000000000000000e+00  2.0000000000000000e+00  2.0000000000000000e+00  2.0000000000000000e+00  2.0000000000000000e+00  2.0000000000000000e+00  2.0000000000000000e+00  2.0000000000000000e+00  2.0000000000000000e+00  2.0000000000000000e+00  2.0000000000000000e+00  2.0000000000000000e+00  2.0000000000000000e+00  2.0000000000000000e+00  2.0000000000000000e+00  2.0000000000000000e+00  2.0000000000000000e+00  2.0000000000000000e+00  2.0000000000000000e+00  2.0000000000000000e+00  2.0000000000000000e+00  2.0000000000000000e+00  2.0000000000000000e+00  2.0000000000000000e+00  2.0000000000000000e+00  2.0000000000000000e+00  2.0000000000000000e+00  2.0000000000000000e+00  2.0000000000000000e+00  2.0000000000000000e+00  2.0000000000000000e+00  2.0000000000000000e+00  2.0000000000000000e+00  2.0000000000000000e+00  2.0000000000000000e+00  2.0000000000000000e+00  2.0000000000000000e+00  2.0000000000000000e+00  2.0000000000000000e+00  2.0000000000000000e+00  2.0000000000000000e+00  2.0000000000000000e+00  2.0000000000000000e+00  2.0000000000000000e+00  2.0000000000000000e+00  2.0000000000000000e+00  2.0000000000000000e+00  2.0000000000000000e+00  2.0000000000000000e+00  2.0000000000000000e+00  2.0000000000000000e+00  2.0000000000000000e+00  2.0000000000000000e+00  2.0000000000000000e+00  2.0000000000000000e+00  2.0000000000000000e+00  2.0000000000000000e+00  2.0000000000000000e+00  2.0000000000000000e+00  2.0000000000000000e+00  2.0000000000000000e+00  2.0000000000000000e+00  2.0000000000000000e+00  2.0000000000000000e+00  2.0000000000000000e+00  2.0000000000000000e+00  2.0000000000000000e+00  2.0000000000000000e+00  2.0000000000000000e+00  2.0000000000000000e+00  2.0000000000000000e+00  2.0000000000000000e+00  2.0000000000000000e+00  2.0000000000000000e+00  2.0000000000000000e+00  2.0000000000000000e+00  2.0000000000000000e+00  2.0000000000000000e+00  2.0000000000000000e+00  2.0000000000000000e+00  2.0000000000000000e+00  2.0000000000000000e+00  2.0000000000000000e+00  2.0000000000000000e+00  2.0000000000000000e+00  2.0000000000000000e+00  2.0000000000000000e+00  2.0000000000000000e+00  2.0000000000000000e+00  2.0000000000000000e+00  2.0000000000000000e+00  2.0000000000000000e+00  2.0000000000000000e+00  2.0000000000000000e+00  2.0000000000000000e+00  2.0000000000000000e+00  2.0000000000000000e+00  2.0000000000000000e+00  2.0000000000000000e+00  2.0000000000000000e+00  2.0000000000000000e+00  2.0000000000000000e+00  2.0000000000000000e+00  2.0000000000000000e+00  2.0000000000000000e+00  2.0000000000000000e+00  2.0000000000000000e+00  2.0000000000000000e+00  2.0000000000000000e+00  2.0000000000000000e+00  2.0000000000000000e+00  2.0000000000000000e+00  2.0000000000000000e+00  2.0000000000000000e+00  2.0000000000000000e+00  2.0000000000000000e+00  2.0000000000000000e+00  2.0000000000000000e+00  2.0000000000000000e+00  2.0000000000000000e+00  2.0000000000000000e+00  2.0000000000000000e+00  2.0000000000000000e+00  2.0000000000000000e+00  2.0000000000000000e+00  2.0000000000000000e+00  2.0000000000000000e+00  2.0000000000000000e+00  2.0000000000000000e+00  2.0000000000000000e+00  2.0000000000000000e+00  2.0000000000000000e+00  2.0000000000000000e+00  2.0000000000000000e+00  2.0000000000000000e+00  2.0000000000000000e+00  2.0000000000000000e+00  2.0000000000000000e+00  2.0000000000000000e+00  2.0000000000000000e+00  2.0000000000000000e+00  2.0000000000000000e+00  2.0000000000000000e+00  2.0000000000000000e+00  2.0000000000000000e+00  2.0000000000000000e+00  2.0000000000000000e+00  2.0000000000000000e+00  2.0000000000000000e+00  2.0000000000000000e+00  2.0000000000000000e+00  2.0000000000000000e+00  2.0000000000000000e+00  2.0000000000000000e+00  2.0000000000000000e+00  2.0000000000000000e+00  2.0000000000000000e+00  2.0000000000000000e+00  2.0000000000000000e+00  2.0000000000000000e+00  2.0000000000000000e+00  2.0000000000000000e+00  2.0000000000000000e+00  2.0000000000000000e+00  2.0000000000000000e+00  2.0000000000000000e+00  2.0000000000000000e+00  2.0000000000000000e+00  2.0000000000000000e+00  2.0000000000000000e+00  2.0000000000000000e+00  2.0000000000000000e+00  2.0000000000000000e+00  2.0000000000000000e+00  2.0000000000000000e+00  2.0000000000000000e+00  2.0000000000000000e+00  2.0000000000000000e+00  2.0000000000000000e+00  2.0000000000000000e+00  2.0000000000000000e+00  2.0000000000000000e+00  2.0000000000000000e+00  2.0000000000000000e+00  2.0000000000000000e+00  2.0000000000000000e+00  2.0000000000000000e+00  2.0000000000000000e+00  2.0000000000000000e+00  2.0000000000000000e+00  2.0000000000000000e+00  2.0000000000000000e+00  2.0000000000000000e+00  2.0000000000000000e+00  2.0000000000000000e+00  2.0000000000000000e+00  2.0000000000000000e+00  2.0000000000000000e+00  2.0000000000000000e+00  2.0000000000000000e+00  2.0000000000000000e+00  2.0000000000000000e+00  2.0000000000000000e+00  2.0000000000000000e+00  2.0000000000000000e+00  2.0000000000000000e+00  2.0000000000000000e+00  2.0000000000000000e+00  2.0000000000000000e+00  2.0000000000000000e+00  2.0000000000000000e+00  2.0000000000000000e+00  2.0000000000000000e+00  2.0000000000000000e+00  2.0000000000000000e+00  2.0000000000000000e+00  2.0000000000000000e+00  2.0000000000000000e+00  2.0000000000000000e+00  2.0000000000000000e+00  2.0000000000000000e+00  2.0000000000000000e+00  2.0000000000000000e+00  2.0000000000000000e+00  2.0000000000000000e+00  2.0000000000000000e+00  2.0000000000000000e+00  2.0000000000000000e+00  2.0000000000000000e+00  2.0000000000000000e+00  2.0000000000000000e+00  2.0000000000000000e+00  2.0000000000000000e+00  2.0000000000000000e+00  2.0000000000000000e+00  2.0000000000000000e+00  2.0000000000000000e+00  2.0000000000000000e+00  2.0000000000000000e+00  2.0000000000000000e+00  2.0000000000000000e+00  2.0000000000000000e+00  2.0000000000000000e+00  2.0000000000000000e+00  2.0000000000000000e+00  2.0000000000000000e+00  2.0000000000000000e+00  2.0000000000000000e+00  2.0000000000000000e+00  2.0000000000000000e+00  2.0000000000000000e+00  2.0000000000000000e+00  2.0000000000000000e+00  2.0000000000000000e+00  2.0000000000000000e+00  2.0000000000000000e+00  2.0000000000000000e+00  2.0000000000000000e+00  2.0000000000000000e+00  2.0000000000000000e+00  2.0000000000000000e+00  2.0000000000000000e+00  2.0000000000000000e+00  2.0000000000000000e+00  2.0000000000000000e+00  2.0000000000000000e+00  2.0000000000000000e+00  2.0000000000000000e+00  2.0000000000000000e+00  2.0000000000000000e+00  2.0000000000000000e+00  2.0000000000000000e+00  2.0000000000000000e+00  2.0000000000000000e+00  2.0000000000000000e+00  2.0000000000000000e+00  2.0000000000000000e+00  2.0000000000000000e+00  2.0000000000000000e+00  2.0000000000000000e+00  2.0000000000000000e+00  2.0000000000000000e+00  2.0000000000000000e+00  2.0000000000000000e+00  2.0000000000000000e+00  2.0000000000000000e+00  2.0000000000000000e+00  2.0000000000000000e+00  2.0000000000000000e+00  2.0000000000000000e+00  2.0000000000000000e+00  2.0000000000000000e+00  2.0000000000000000e+00  2.0000000000000000e+00  2.0000000000000000e+00  2.0000000000000000e+00  2.0000000000000000e+00  2.0000000000000000e+00  2.0000000000000000e+00  2.0000000000000000e+00  2.0000000000000000e+00  2.0000000000000000e+00  2.0000000000000000e+00  2.0000000000000000e+00  2.0000000000000000e+00  2.0000000000000000e+00  2.0000000000000000e+00  2.0000000000000000e+00  2.0000000000000000e+00  2.0000000000000000e+00  2.0000000000000000e+00  2.0000000000000000e+00  2.0000000000000000e+00  2.0000000000000000e+00  2.0000000000000000e+00  2.0000000000000000e+00  2.0000000000000000e+00  2.0000000000000000e+00  2.0000000000000000e+00  2.0000000000000000e+00  2.0000000000000000e+00  2.0000000000000000e+00  2.0000000000000000e+00  2.0000000000000000e+00  2.0000000000000000e+00  2.0000000000000000e+00  2.0000000000000000e+00  2.0000000000000000e+00  2.0000000000000000e+00  2.0000000000000000e+00  2.0000000000000000e+00  2.0000000000000000e+00  2.0000000000000000e+00  2.0000000000000000e+00  2.0000000000000000e+00  2.0000000000000000e+00  2.0000000000000000e+00  2.0000000000000000e+00  2.0000000000000000e+00  2.0000000000000000e+00  2.0000000000000000e+00  2.0000000000000000e+00  2.0000000000000000e+00  2.0000000000000000e+00  2.0000000000000000e+00  2.0000000000000000e+00  2.0000000000000000e+00  2.0000000000000000e+00  2.0000000000000000e+00  2.0000000000000000e+00  2.0000000000000000e+00  2.0000000000000000e+00  2.0000000000000000e+00  2.0000000000000000e+00  2.0000000000000000e+00  2.0000000000000000e+00  2.0000000000000000e+00  2.0000000000000000e+00  2.0000000000000000e+00  2.0000000000000000e+00  2.0000000000000000e+00  2.0000000000000000e+00  2.0000000000000000e+00  2.0000000000000000e+00  2.0000000000000000e+00  2.0000000000000000e+00  2.0000000000000000e+00  2.0000000000000000e+00  2.0000000000000000e+00  2.0000000000000000e+00  2.0000000000000000e+00  2.0000000000000000e+00  2.0000000000000000e+00  2.0000000000000000e+00  2.0000000000000000e+00  2.0000000000000000e+00  2.0000000000000000e+00  2.0000000000000000e+00  2.0000000000000000e+00  2.0000000000000000e+00  2.0000000000000000e+00  2.0000000000000000e+00  2.0000000000000000e+00  2.0000000000000000e+00  2.0000000000000000e+00  2.0000000000000000e+00  2.0000000000000000e+00  2.0000000000000000e+00  2.0000000000000000e+00  2.0000000000000000e+00  2.0000000000000000e+00  2.0000000000000000e+00  2.0000000000000000e+00  2.0000000000000000e+00  2.0000000000000000e+00  2.0000000000000000e+00  2.0000000000000000e+00  2.0000000000000000e+00  2.0000000000000000e+00  2.0000000000000000e+00  2.0000000000000000e+00  2.0000000000000000e+00  2.0000000000000000e+00  2.0000000000000000e+00  2.0000000000000000e+00  2.0000000000000000e+00  2.0000000000000000e+00  2.0000000000000000e+00  2.0000000000000000e+00  2.0000000000000000e+00  2.0000000000000000e+00  2.0000000000000000e+00  2.0000000000000000e+00  2.0000000000000000e+00  2.0000000000000000e+00  2.0000000000000000e+00  2.0000000000000000e+00  2.0000000000000000e+00  2.0000000000000000e+00  2.0000000000000000e+00  2.0000000000000000e+00  2.0000000000000000e+00  2.0000000000000000e+00  2.0000000000000000e+00  2.0000000000000000e+00  2.0000000000000000e+00  2.0000000000000000e+00  2.0000000000000000e+00  2.0000000000000000e+00  2.0000000000000000e+00  2.0000000000000000e+00  2.0000000000000000e+00  2.0000000000000000e+00  2.0000000000000000e+00  2.0000000000000000e+00  2.0000000000000000e+00  2.0000000000000000e+00  2.0000000000000000e+00  2.0000000000000000e+00  2.0000000000000000e+00  2.0000000000000000e+00  2.0000000000000000e+00  2.0000000000000000e+00  2.0000000000000000e+00  2.0000000000000000e+00  2.0000000000000000e+00  2.0000000000000000e+00  2.0000000000000000e+00  2.0000000000000000e+00  2.0000000000000000e+00  2.0000000000000000e+00  2.0000000000000000e+00  2.0000000000000000e+00  2.0000000000000000e+00  2.0000000000000000e+00  2.0000000000000000e+00  2.0000000000000000e+00  2.0000000000000000e+00  2.0000000000000000e+00  2.0000000000000000e+00  2.0000000000000000e+00  2.0000000000000000e+00  2.0000000000000000e+00  2.0000000000000000e+00  2.0000000000000000e+00  2.0000000000000000e+00  2.0000000000000000e+00  2.0000000000000000e+00  2.0000000000000000e+00  2.0000000000000000e+00  2.0000000000000000e+00  2.0000000000000000e+00  2.0000000000000000e+00  2.0000000000000000e+00  2.0000000000000000e+00  2.0000000000000000e+00  2.0000000000000000e+00  2.0000000000000000e+00  2.0000000000000000e+00  2.0000000000000000e+00  2.0000000000000000e+00  2.0000000000000000e+00  2.0000000000000000e+00  2.0000000000000000e+00  2.0000000000000000e+00  2.0000000000000000e+00  2.0000000000000000e+00  2.0000000000000000e+00  2.0000000000000000e+00  2.0000000000000000e+00  2.0000000000000000e+00  2.0000000000000000e+00  2.0000000000000000e+00  2.0000000000000000e+00  2.0000000000000000e+00  2.0000000000000000e+00  2.0000000000000000e+00  2.0000000000000000e+00  2.0000000000000000e+00  2.0000000000000000e+00  2.0000000000000000e+00  2.0000000000000000e+00  2.0000000000000000e+00  2.0000000000000000e+00  2.0000000000000000e+00  2.0000000000000000e+00  2.0000000000000000e+00  2.0000000000000000e+00  2.0000000000000000e+00  2.0000000000000000e+00  2.0000000000000000e+00  2.0000000000000000e+00  2.0000000000000000e+00  2.0000000000000000e+00  2.0000000000000000e+00  2.0000000000000000e+00  2.0000000000000000e+00  2.0000000000000000e+00  2.0000000000000000e+00  2.0000000000000000e+00  2.0000000000000000e+00  2.0000000000000000e+00  2.0000000000000000e+00  2.0000000000000000e+00  2.0000000000000000e+00  2.0000000000000000e+00  2.0000000000000000e+00  2.0000000000000000e+00  2.0000000000000000e+00  2.0000000000000000e+00  2.0000000000000000e+00  2.0000000000000000e+00  2.0000000000000000e+00  2.0000000000000000e+00  2.0000000000000000e+00  2.0000000000000000e+00  2.0000000000000000e+00  2.0000000000000000e+00  2.0000000000000000e+00  2.0000000000000000e+00  2.0000000000000000e+00  2.0000000000000000e+00  2.0000000000000000e+00  2.0000000000000000e+00  2.0000000000000000e+00  2.0000000000000000e+00  2.0000000000000000e+00  2.0000000000000000e+00  2.0000000000000000e+00  2.0000000000000000e+00  2.0000000000000000e+00  2.0000000000000000e+00  2.0000000000000000e+00  2.0000000000000000e+00  2.0000000000000000e+00  2.0000000000000000e+00  2.0000000000000000e+00  2.0000000000000000e+00  2.0000000000000000e+00  2.0000000000000000e+00  2.0000000000000000e+00  2.0000000000000000e+00  2.0000000000000000e+00  2.0000000000000000e+00  2.0000000000000000e+00  2.0000000000000000e+00  2.0000000000000000e+00  2.0000000000000000e+00  2.0000000000000000e+00  2.0000000000000000e+00  2.0000000000000000e+00  2.0000000000000000e+00  2.0000000000000000e+00  2.0000000000000000e+00  2.0000000000000000e+00  2.0000000000000000e+00  2.0000000000000000e+00  2.0000000000000000e+00  2.0000000000000000e+00  2.0000000000000000e+00  2.0000000000000000e+00  2.0000000000000000e+00  2.0000000000000000e+00  2.0000000000000000e+00  2.0000000000000000e+00  2.0000000000000000e+00  2.0000000000000000e+00  2.0000000000000000e+00  2.0000000000000000e+00  2.0000000000000000e+00  2.0000000000000000e+00  2.0000000000000000e+00  2.0000000000000000e+00  2.0000000000000000e+00  2.0000000000000000e+00  2.0000000000000000e+00  2.0000000000000000e+00  2.0000000000000000e+00  2.0000000000000000e+00  2.0000000000000000e+00  2.0000000000000000e+00  2.0000000000000000e+00  2.0000000000000000e+00  2.0000000000000000e+00  2.0000000000000000e+00  2.0000000000000000e+00  2.0000000000000000e+00  2.0000000000000000e+00  2.0000000000000000e+00  2.0000000000000000e+00  2.0000000000000000e+00  2.0000000000000000e+00  2.0000000000000000e+00  2.0000000000000000e+00  2.0000000000000000e+00  2.0000000000000000e+00  2.0000000000000000e+00  2.0000000000000000e+00  2.0000000000000000e+00  2.0000000000000000e+00  2.0000000000000000e+00  2.0000000000000000e+00  2.0000000000000000e+00  2.0000000000000000e+00  2.0000000000000000e+00  2.0000000000000000e+00  2.0000000000000000e+00  2.0000000000000000e+00  2.0000000000000000e+00  2.0000000000000000e+00  2.0000000000000000e+00  2.0000000000000000e+00  2.0000000000000000e+00  2.0000000000000000e+00  2.0000000000000000e+00  2.0000000000000000e+00  2.0000000000000000e+00 