<?xml version="1.0"?>
<VTKFile type="UnstructuredGrid"  version="0.1"  >
<UnstructuredGrid>
<Piece  NumberOfPoints="129" NumberOfCells="128">
<Points>
<DataArray  type="Float64"  NumberOfComponents="3"  format="ascii">0 0 0  0.03125 0 0  0.0625 0 0  0.09375 0 0  0.125 0 0  0.15625 0 0  0.1875 0 0  0.21875 0 0  0.25 0 0  0.28125 0 0  0.3125 0 0  0.34375 0 0  0.375 0 0  0.40625 0 0  0.4375 0 0  0.46875 0 0  0.5 0 0  0.53125 0 0  0.5625 0 0  0.59375 0 0  0.625 0 0  0.65625 0 0  0.6875 0 0  0.71875 0 0  0.75 0 0  0.78125 0 0  0.8125 0 0  0.84375 0 0  0.875 0 0  0.90625 0 0  0.9375 0 0  0.96875 0 0  1 0 0  1.03125 0 0  1.0625 0 0  1.09375 0 0  1.125 0 0  1.15625 0 0  1.1875 0 0  1.21875 0 0  1.25 0 0  1.28125 0 0  1.3125 0 0  1.34375 0 0  1.375 0 0  1.40625 0 0  1.4375 0 0  1.46875 0 0  1.5 0 0  1.53125 0 0  1.5625 0 0  1.59375 0 0  1.625 0 0  1.65625 0 0  1.6875 0 0  1.71875 0 0  1.75 0 0  1.78125 0 0  1.8125 0 0  1.84375 0 0  1.875 0 0  1.90625 0 0  1.9375 0 0  1.96875 0 0  2 0 0  2.03125 0 0  2.0625 0 0  2.09375 0 0  2.125 0 0  2.15625 0 0  2.1875 0 0  2.21875 0 0  2.25 0 0  2.28125 0 0  2.3125 0 0  2.34375 0 0  2.375 0 0  2.40625 0 0  2.4375 0 0  2.46875 0 0  2.5 0 0  2.53125 0 0  2.5625 0 0  2.59375 0 0  2.625 0 0  2.65625 0 0  2.6875 0 0  2.71875 0 0  2.75 0 0  2.78125 0 0  2.8125 0 0  2.84375 0 0  2.875 0 0  2.90625 0 0  2.9375 0 0  2.96875 0 0  3 0 0  3.03125 0 0  3.0625 0 0  3.09375 0 0  3.125 0 0  3.15625 0 0  3.1875 0 0  3.21875 0 0  3.25 0 0  3.28125 0 0  3.3125 0 0  3.34375 0 0  3.375 0 0  3.40625 0 0  3.4375 0 0  3.46875 0 0  3.5 0 0  3.53125 0 0  3.5625 0 0  3.59375 0 0  3.625 0 0  3.65625 0 0  3.6875 0 0  3.71875 0 0  3.75 0 0  3.78125 0 0  3.8125 0 0  3.84375 0 0  3.875 0 0  3.90625 0 0  3.9375 0 0  3.96875 0 0  4 0 0  </DataArray>
</Points>
<Cells>
<DataArray  type="UInt32"  Name="connectivity"  format="ascii">0 1  1 2  2 3  3 4  4 5  5 6  6 7  7 8  8 9  9 10  10 11  11 12  12 13  13 14  14 15  15 16  16 17  17 18  18 19  19 20  20 21  21 22  22 23  23 24  24 25  25 26  26 27  27 28  28 29  29 30  30 31  31 32  32 33  33 34  34 35  35 36  36 37  37 38  38 39  39 40  40 41  41 42  42 43  43 44  44 45  45 46  46 47  47 48  48 49  49 50  50 51  51 52  52 53  53 54  54 55  55 56  56 57  57 58  58 59  59 60  60 61  61 62  62 63  63 64  64 65  65 66  66 67  67 68  68 69  69 70  70 71  71 72  72 73  73 74  74 75  75 76  76 77  77 78  78 79  79 80  80 81  81 82  82 83  83 84  84 85  85 86  86 87  87 88  88 89  89 90  90 91  91 92  92 93  93 94  94 95  95 96  96 97  97 98  98 99  99 100  100 101  101 102  102 103  103 104  104 105  105 106  106 107  107 108  108 109  109 110  110 111  111 112  112 113  113 114  114 115  115 116  116 117  117 118  118 119  119 120  120 121  121 122  122 123  123 124  124 125  125 126  126 127  127 128  </DataArray>
<DataArray  type="UInt32"  Name="offsets"  format="ascii">2 4 6 8 10 12 14 16 18 20 22 24 26 28 30 32 34 36 38 40 42 44 46 48 50 52 54 56 58 60 62 64 66 68 70 72 74 76 78 80 82 84 86 88 90 92 94 96 98 100 102 104 106 108 110 112 114 116 118 120 122 124 126 128 130 132 134 136 138 140 142 144 146 148 150 152 154 156 158 160 162 164 166 168 170 172 174 176 178 180 182 184 186 188 190 192 194 196 198 200 202 204 206 208 210 212 214 216 218 220 222 224 226 228 230 232 234 236 238 240 242 244 246 248 250 252 254 256 </DataArray>
<DataArray  type="UInt8"  Name="types"  format="ascii">3 3 3 3 3 3 3 3 3 3 3 3 3 3 3 3 3 3 3 3 3 3 3 3 3 3 3 3 3 3 3 3 3 3 3 3 3 3 3 3 3 3 3 3 3 3 3 3 3 3 3 3 3 3 3 3 3 3 3 3 3 3 3 3 3 3 3 3 3 3 3 3 3 3 3 3 3 3 3 3 3 3 3 3 3 3 3 3 3 3 3 3 3 3 3 3 3 3 3 3 3 3 3 3 3 3 3 3 3 3 3 3 3 3 3 3 3 3 3 3 3 3 3 3 3 3 3 3 </DataArray>
</Cells>
<PointData  Scalars="U"> 
<DataArray  type="Float64"  Name="U"  format="ascii">-1.5318244668197924e-02  1.5797711156373689e-01  1.6971644877086289e-01  2.6939973983890741e-01  2.8096789636264008e-01  3.1879480333031252e-01  3.7260791243769664e-01  4.4051715143051262e-01  5.1654291173529854e-01  5.9022092381984659e-01  6.5532203150746304e-01  7.0810246536663768e-01  7.5292607270398948e-01  7.9114799565643179e-01  8.4171539674101048e-01  8.9512281602896104e-01  9.6162002984607398e-01  1.0200109468253507e+00  1.0701123910467762e+00  1.1189965021356343e+00  1.1701905888812008e+00  1.2229423852071317e+00  1.2660271143750506e+00  1.3103522414752233e+00  1.3553042360612060e+00  1.4073769257365549e+00  1.4539472300989520e+00  1.4921923846127569e+00  1.5232160415248801e+00  1.5584925890560908e+00  1.5951833031081859e+00  1.6340803102642796e+00  1.6696846481351364e+00  1.7008394171461454e+00  1.7328666437252014e+00  1.7663946801968626e+00  1.7999437184997982e+00  1.8281841576991356e+00  1.8506444274641869e+00  1.8718102909647480e+00  1.9006151298622320e+00  1.9346303607813615e+00  1.9642379996680095e+00  1.9820283457402665e+00  1.9993299812521743e+00  2.0229508071160285e+00  2.0498088439705997e+00  2.0667492931924607e+00  2.0779912747897118e+00  2.0909179053882228e+00  2.1104317179851524e+00  2.1310445802658733e+00  2.1479333878273201e+00  2.1602687202430353e+00  2.1701424899207504e+00  2.1815560518661083e+00  2.1931685964720389e+00  2.2031827457839990e+00  2.2083652821910791e+00  2.2120129078705832e+00  2.2165369910251180e+00  2.2220596481096404e+00  2.2254812044699381e+00  2.2257668790779586e+00  2.2246745971444524e+00  2.2254646780621909e+00  2.2273741853589759e+00  2.2278312239463443e+00  2.2238242258485412e+00  2.2186162441143780e+00  2.2120069544832992e+00  2.2030296949741728e+00  2.1894982285060927e+00  2.1752071918444624e+00  2.1646678022868580e+00  2.1566495450643766e+00  2.1471342072780959e+00  2.1330292181524872e+00  2.1164124515099423e+00  2.1001127951179419e+00  2.0844510057645076e+00  2.0664302632020917e+00  2.0446466610094154e+00  2.0174035618300792e+00  1.9908841440034737e+00  1.9684756500609997e+00  1.9475036308956128e+00  1.9230317036078128e+00  1.8935163627468434e+00  1.8666360587857895e+00  1.8426235676634715e+00  1.8158095519632997e+00  1.7823239275413192e+00  1.7461410578156562e+00  1.7139144696208630e+00  1.6812949558345935e+00  1.6449475179604303e+00  1.6087840003614515e+00  1.5734333242548226e+00  1.5337712730440742e+00  1.4940040815741482e+00  1.4622333829490151e+00  1.4315380062653598e+00  1.3935096167703003e+00  1.3531669496587515e+00  1.3118272014449524e+00  1.2662110412252510e+00  1.2125152869517477e+00  1.1541021171200641e+00  1.1011350696165347e+00  1.0589531977278273e+00  1.0271234429749831e+00  9.8714396055322617e-01  9.4759821737875050e-01  8.8903177687862267e-01  8.3491768364661212e-01  7.8748527884278330e-01  7.1785338121266951e-01  6.6747264854397637e-01  6.0688618271776207e-01  5.7409935723590966e-01  5.1252139584606038e-01  4.6841156535202444e-01  4.2691035800834776e-01  3.9908669808533759e-01  3.3032063849577220e-01  3.1818854783353245e-01  3.2451650742128280e-01  2.2026400741277641e-01  </DataArray> 
</PointData> 
</Piece>
</UnstructuredGrid>
</VTKFile>