<?xml version="1.0"?>
<VTKFile type="UnstructuredGrid"  version="0.1"  >
<UnstructuredGrid>
<Piece  NumberOfPoints="2849" NumberOfCells="5504">
<Points>
<DataArray  type="Float64"  NumberOfComponents="3"  format="ascii">0 0 0  0 2 0  4 2 0  4 0 0  0 0.06249999999988225 0  0 0.1249999999997431 0  0 0.1874999999996473 0  0 0.2499999999995515 0  0 0.3124999999993696 0  0 0.3749999999991878 0  0 0.4374999999990059 0  0 0.4999999999988241 0  0 0.5624999999986446 0  0 0.6249999999984651 0  0 0.6874999999982856 0  0 0.7499999999981061 0  0 0.8124999999979265 0  0 0.874999999997747 0  0 0.9374999999975675 0  0 0.999999999997388 0  0 1.06249999999755 0  0 1.124999999997712 0  0 1.187499999997874 0  0 1.249999999998036 0  0 1.312499999998197 0  0 1.374999999998359 0  0 1.437499999998521 0  0 1.499999999998683 0  0 1.562499999998848 0  0 1.624999999999012 0  0 1.687499999999177 0  0 1.749999999999342 0  0 1.812499999999506 0  0 1.874999999999671 0  0 1.937499999999835 0  0.06249999999988101 2 0  0.1249999999997626 2 0  0.1874999999996225 2 0  0.2499999999994824 2 0  0.3124999999993856 2 0  0.3749999999992888 2 0  0.437499999999192 2 0  0.4999999999990952 2 0  0.5624999999989143 2 0  0.6249999999987335 2 0  0.6874999999985526 2 0  0.7499999999983717 2 0  0.8124999999981909 2 0  0.87499999999801 2 0  0.9374999999978291 2 0  0.9999999999976482 2 0  1.062499999997466 2 0  1.124999999997284 2 0  1.187499999997102 2 0  1.249999999996919 2 0  1.312499999996737 2 0  1.374999999996555 2 0  1.437499999996373 2 0  1.49999999999619 2 0  1.562499999996013 2 0  1.624999999995837 2 0  1.68749999999566 2 0  1.749999999995483 2 0  1.812499999995306 2 0  1.87499999999513 2 0  1.937499999994953 2 0  1.999999999994776 2 0  2.062499999994935 2 0  2.124999999995095 2 0  2.187499999995254 2 0  2.249999999995413 2 0  2.312499999995572 2 0  2.374999999995731 2 0  2.43749999999589 2 0  2.49999999999605 2 0  2.562499999996215 2 0  2.624999999996379 2 0  2.687499999996543 2 0  2.749999999996708 2 0  2.812499999996873 2 0  2.874999999997037 2 0  2.937499999997202 2 0  2.999999999997367 2 0  3.062499999997531 2 0  3.124999999997696 2 0  3.18749999999786 2 0  3.249999999998025 2 0  3.312499999998189 2 0  3.374999999998354 2 0  3.437499999998519 2 0  3.499999999998683 2 0  3.562499999998848 2 0  3.624999999999012 2 0  3.687499999999177 2 0  3.749999999999341 2 0  3.812499999999506 2 0  3.87499999999967 2 0  3.937499999999835 2 0  4 1.937500000000006 0  4 1.875000000000123 0  4 1.812500000000267 0  4 1.750000000000209 0  4 1.687500000000338 0  4 1.625000000000461 0  4 1.562500000000623 0  4 1.500000000000693 0  4 1.437500000001101 0  4 1.375000000001536 0  4 1.312500000002047 0  4 1.250000000002256 0  4 1.187500000002735 0  4 1.125000000003229 0  4 1.062500000003664 0  4 1.000000000004118 0  4 0.9375000000038636 0  4 0.8750000000036089 0  4 0.8125000000033542 0  4 0.7500000000030995 0  4 0.6875000000028448 0  4 0.6250000000025902 0  4 0.5625000000023355 0  4 0.5000000000020808 0  4 0.4375000000018205 0  4 0.3750000000015605 0  4 0.3125000000013003 0  4 0.2500000000010403 0  4 0.18750000000078 0  4 0.12500000000052 0  4 0.06250000000026001 0  3.937499999999757 0 0  3.874999999999586 0 0  3.812499999999443 0 0  3.749999999999274 0 0  3.687499999998965 0 0  3.624999999998618 0 0  3.562499999998253 0 0  3.499999999998004 0 0  3.437499999998331 0 0  3.374999999998717 0 0  3.312499999999106 0 0  3.249999999999506 0 0  3.187499999999934 0 0  3.125000000000414 0 0  3.06250000000085 0 0  3.000000000001386 0 0  2.937500000001852 0 0  2.875000000002339 0 0  2.812500000002886 0 0  2.750000000003406 0 0  2.687500000003777 0 0  2.625000000004116 0 0  2.56250000000449 0 0  2.500000000004855 0 0  2.437500000005349 0 0  2.375000000005834 0 0  2.312500000006138 0 0  2.250000000006474 0 0  2.187500000006903 0 0  2.125000000007378 0 0  2.06250000000783 0 0  2.000000000008237 0 0  1.937500000007987 0 0  1.875000000007738 0 0  1.812500000007488 0 0  1.750000000007239 0 0  1.68750000000699 0 0  1.625000000006741 0 0  1.562500000006492 0 0  1.500000000006242 0 0  1.437500000005982 0 0  1.375000000005722 0 0  1.312500000005462 0 0  1.250000000005202 0 0  1.187500000004942 0 0  1.125000000004682 0 0  1.062500000004421 0 0  1.000000000004162 0 0  0.9375000000039013 0 0  0.8750000000036411 0 0  0.8125000000033809 0 0  0.7500000000031211 0 0  0.6875000000028608 0 0  0.625000000002601 0 0  0.5625000000023408 0 0  0.500000000002081 0 0  0.4375000000018208 0 0  0.3750000000015605 0 0  0.3125000000013003 0 0  0.2500000000010405 0 0  0.1875000000007803 0 0  0.12500000000052 0 0  0.06250000000025979 0 0  2.751943738452744 0.4502303079023504 0  1.750000000006644 0.4330127018922776 0  1.24999999999692 1.566987298109043 0  2.198013603145998 1.55809283687899 0  3.247881315357668 1.576613977471344 0  0.7521186846436931 0.4233860225293321 0  3.604646881608647 0.7183803468350101 0  0.3953531183914658 1.281619653165416 0  1.25035311411272 0.4314082553323813 0  1.500058852358896 0.8445724375661612 0  1.989156378093928 0.8579334422883895 0  1.750000000009022 1.299038105676122 0  0.9973508174755198 0.8076485688783537 0  2.749999999997339 1.566987298107004 0  3.002717843603222 1.188508528991859 0  2.533455241124366 1.190277318175192 0  2.22583414908933 0.4214378737978327 0  3.279641263780507 0.389092528073727 0  3.552608346638475 1.213748434721428 0  0.7206826926270968 1.613777072928224 0  0.4473966578135999 0.7859714703715941 0  2.767860793511576 0.8832772111385303 0  1.749999999995483 1.694100648860432 0  1.258589614778837 1.151739544308598 0  3.633974596214294 0.3660254037857282 0  3.633974596214256 1.633974596214794 0  0.366025403785061 1.633974596214344 0  0.3660254037865152 0.3660254037856426 0  3.187282366407972 0.799919109919273 0  0.8210937919434733 1.200395787834862 0  2.382690224779792 0.8121957412458931 0  2.148692841347422 1.187388232457183 0  0.7223737376445598 0.7968100196249739 0  0.6342452248785366 0.993183629103228 0  0.9092223047094965 1.004022178356608 0  3.277663095120849 1.201128481856643 0  3.369945356523223 1.00683377232035 0  3.095000105005597 0.9942138194555659 0  0.8747347510596064 0.6155172957038428 0  0.5997576712286465 0.604678746450463 0  3.125299579480445 1.382561253231602 0  3.400244830998071 1.395181206096386 0  1.500000000002971 1.433012701892583 0  1.50429480739393 1.22538882499236 0  1.254294807387878 1.359363421208821 0  1.499999999996201 1.630543973484738 0  1.750000000002252 1.496569377268277 0  1.97400680157751 1.428565471277556 0  1.97400680157074 1.626096742869711 0  3.578627614123561 0.9660643907782188 0  3.395964624008309 0.7591497283771416 0  0.4213748881025329 1.033795561768505 0  0.6082234551674696 1.241007720500139 0  3.802323440804323 0.6091901734185454 0  3.802323440804323 0.8591901734195642 0  1.001235899378206 0.4273971389308567 0  1.12385196579412 0.6195284121053675 0  1.500176557059682 0.4322104786123294 0  1.375205983235808 0.6379903464492712 0  1.62502942618277 0.6387925697292194 0  2.876358921800281 1.377747913549431 0  2.768086542363794 1.189392923583525 0  2.641727620560853 1.378632308141098 0  1.625000000006443 0.2165063509461388 0  1.87500000000744 0.2165063509461388 0  2.474006801571669 1.562540067492997 0  2.365734422135182 1.374185077527091 0  0.1976765591957329 1.39080982658205 0  0.1976765591957329 1.140809826581402 0  1.375176557059481 0.2157041276661906 0  2.998940657677504 1.571800637789174 0  0.8760593423239273 0.2116930112646661 0  1.125176557058441 0.2157041276661906 0  2.112917074548784 0.2107189368989164 0  2.362917074547092 0.2107189368989164 0  3.373940657678175 1.788306988735672 0  3.123940657677517 1.788306988735672 0  2.874999999997353 1.783493649053502 0  2.349006801571024 1.779046418439495 0  2.624999999996695 1.783493649053502 0  1.248704834917208 0.8261105032222574 0  2.099006801570387 1.779046418439495 0  0.6260593423228871 0.2116930112646661 0  1.744607615226412 0.8512529399272754 0  1.869578189050286 0.6454730720903336 0  2.625971869228799 0.2251151539511752 0  2.488888943771037 0.4358340908500916 0  1.987917074547987 0.4272252878450552 0  1.625029426183959 1.071805271621142 0  1.869578189051475 1.078485773982256 0  1.374999999996555 1.783493649054522 0  1.124999999997284 1.783493649054522 0  2.875971869227065 0.2251151539511752 0  2.107495263591629 0.6396856580431112 0  3.015792501116626 0.4196614179880387 0  2.969613052430358 0.6250747089108117 0  3.233461815094239 0.5945058189965 0  0.9853413463120082 1.590382185518634 0  1.035546895970196 1.383691542971953 0  0.7708882422852851 1.407086430381543 0  2.75990226598216 0.6667537595204404 0  2.977571579959774 0.8415981605289016 0  1.039841703361155 1.17606766607173 0  2.17335322224671 1.372740534668087 0  1.949346420678222 1.243213169066653 0  3.776304173319237 1.106874217362773 0  3.776304173319237 1.35687421736106 0  3.139820631890947 0.1945462640368635 0  3.389820631889256 0.1945462640368635 0  0.2236983289068 0.892985735184491 0  0.2236983289068 0.6429857351852091 0  0.8603413463123726 1.806888536464112 0  0.610341346313096 1.806888536464112 0  1.874999999995129 1.847050324430216 0  1.379324233568866 0.9981559909373798 0  1.624999999995837 1.847050324430216 0  3.566987298106149 0.1830127018928641 0  3.816987298107147 0.1830127018928641 0  3.816987298107128 1.566987298107743 0  3.816987298107128 1.816987298107397 0  0.1830127018932576 0.1830127018928213 0  0.4330127018942981 0.1830127018928213 0  0.1830127018932576 0.4330127018922334 0  3.566987298106469 1.816987298107397 0  0.4330127018920781 1.816987298107172 0  0.1830127018925305 1.816987298107172 0  0.1830127018925305 1.566987298106514 0  3.816987298107147 0.4330127018939045 0  2.304262186934561 0.616816807521863 0  2.567316981616268 0.6312130245741218 0  2.575275509145684 0.8477364761922117 0  3.593291471426365 1.42386151546811 0  0.4067110308000575 0.5759984370786184 0  3.4568079299974 0.3775589659297276 0  0.5433540482060789 1.623875834571284 0  2.885289318557399 1.035892870065195 0  2.650658017317971 1.
[...]
<PointData  Scalars="h"> 
<DataArray  type="Float64"  Name="h"  format="ascii">0.0000000000000000e+00  0.0000000000000000e+00  1.0013558403916070e-01  1.0012018123797804e-01  0.0000000000000000e+00  0.0000000000000000e+00  0.0000000000000000e+00  0.0000000000000000e+00  0.0000000000000000e+00  0.0000000000000000e+00  0.0000000000000000e+00  0.0000000000000000e+00  0.0000000000000000e+00  0.0000000000000000e+00  0.0000000000000000e+00  0.0000000000000000e+00  0.0000000000000000e+00  0.0000000000000000e+00  0.0000000000000000e+00  0.0000000000000000e+00  0.0000000000000000e+00  0.0000000000000000e+00  0.0000000000000000e+00  0.0000000000000000e+00  0.0000000000000000e+00  0.0000000000000000e+00  0.0000000000000000e+00  0.0000000000000000e+00  0.0000000000000000e+00  0.0000000000000000e+00  0.0000000000000000e+00  0.0000000000000000e+00  0.0000000000000000e+00  0.0000000000000000e+00  0.0000000000000000e+00  0.0000000000000000e+00  0.0000000000000000e+00  0.0000000000000000e+00  0.0000000000000000e+00  0.0000000000000000e+00  0.0000000000000000e+00  0.0000000000000000e+00  0.0000000000000000e+00  0.0000000000000000e+00  0.0000000000000000e+00  0.0000000000000000e+00  0.0000000000000000e+00  0.0000000000000000e+00  0.0000000000000000e+00  0.0000000000000000e+00  0.0000000000000000e+00  0.0000000000000000e+00  0.0000000000000000e+00  0.0000000000000000e+00  0.0000000000000000e+00  0.0000000000000000e+00  0.0000000000000000e+00  0.0000000000000000e+00  0.0000000000000000e+00  0.0000000000000000e+00  0.0000000000000000e+00  0.0000000000000000e+00  0.0000000000000000e+00  0.0000000000000000e+00  0.0000000000000000e+00  0.0000000000000000e+00  0.0000000000000000e+00  0.0000000000000000e+00  0.0000000000000000e+00  0.0000000000000000e+00  0.0000000000000000e+00  0.0000000000000000e+00  0.0000000000000000e+00  0.0000000000000000e+00  0.0000000000000000e+00  0.0000000000000000e+00  0.0000000000000000e+00  0.0000000000000000e+00  0.0000000000000000e+00  0.0000000000000000e+00  0.0000000000000000e+00  0.0000000000000000e+00  0.0000000000000000e+00  0.0000000000000000e+00  0.0000000000000000e+00  0.0000000000000000e+00  0.0000000000000000e+00  0.0000000000000000e+00  0.0000000000000000e+00  0.0000000000000000e+00  0.0000000000000000e+00  0.0000000000000000e+00  0.0000000000000000e+00  0.0000000000000000e+00  0.0000000000000000e+00  0.0000000000000000e+00  0.0000000000000000e+00  0.0000000000000000e+00  1.0013624884465649e-01  1.0015882637110993e-01  1.0020606437289457e-01  1.0020586450647763e-01  1.0014083698981395e-01  9.9984432844970564e-02  9.9717860103995110e-02  9.9499836665066246e-02  9.9564646002989171e-02  9.9688073247985343e-02  9.9772022006340014e-02  9.9829470285406896e-02  9.9854929198133241e-02  9.9865350528782301e-02  9.9905450459680870e-02  9.9966039759102732e-02  1.0000510686692746e-01  1.0004492770150218e-01  1.0009177353419733e-01  1.0008938359091621e-01  1.0000468878691524e-01  9.9846691513923516e-02  9.9612600554860750e-02  9.9447728935474544e-02  9.9667525859712378e-02  9.9957904991096941e-02  1.0013309705479187e-01  1.0020652422461111e-01  1.0019788600545597e-01  1.0014631274982350e-01  1.0012083994182250e-01  0.0000000000000000e+00  0.0000000000000000e+00  0.0000000000000000e+00  0.0000000000000000e+00  0.0000000000000000e+00  0.0000000000000000e+00  0.0000000000000000e+00  0.0000000000000000e+00  0.0000000000000000e+00  0.0000000000000000e+00  0.0000000000000000e+00  0.0000000000000000e+00  0.0000000000000000e+00  0.0000000000000000e+00  0.0000000000000000e+00  0.0000000000000000e+00  0.0000000000000000e+00  0.0000000000000000e+00  0.0000000000000000e+00  0.0000000000000000e+00  0.0000000000000000e+00  0.0000000000000000e+00  0.0000000000000000e+00  0.0000000000000000e+00  0.0000000000000000e+00  0.0000000000000000e+00  0.0000000000000000e+00  0.0000000000000000e+00  0.0000000000000000e+00  0.0000000000000000e+00  0.0000000000000000e+00  0.0000000000000000e+00  0.0000000000000000e+00  0.0000000000000000e+00  0.0000000000000000e+00  0.0000000000000000e+00  0.0000000000000000e+00  0.0000000000000000e+00  0.0000000000000000e+00  0.0000000000000000e+00  0.0000000000000000e+00  0.0000000000000000e+00  0.0000000000000000e+00  0.0000000000000000e+00  0.0000000000000000e+00  0.0000000000000000e+00  0.0000000000000000e+00  0.0000000000000000e+00  0.0000000000000000e+00  0.0000000000000000e+00  0.0000000000000000e+00  0.0000000000000000e+00  0.0000000000000000e+00  0.0000000000000000e+00  0.0000000000000000e+00  0.0000000000000000e+00  0.0000000000000000e+00  0.0000000000000000e+00  0.0000000000000000e+00  0.0000000000000000e+00  0.0000000000000000e+00  0.0000000000000000e+00  0.0000000000000000e+00  0.0000000000000000e+00  0.0000000000000000e+00  0.0000000000000000e+00  0.0000000000000000e+00  0.0000000000000000e+00  0.0000000000000000e+00  0.0000000000000000e+00  0.0000000000000000e+00  0.0000000000000000e+00  0.0000000000000000e+00  0.0000000000000000e+00  0.0000000000000000e+00  0.0000000000000000e+00  0.0000000000000000e+00  0.0000000000000000e+00  0.0000000000000000e+00  0.0000000000000000e+00  0.0000000000000000e+00  0.0000000000000000e+00  0.0000000000000000e+00  0.0000000000000000e+00  0.0000000000000000e+00  0.0000000000000000e+00  0.0000000000000000e+00  0.0000000000000000e+00  0.0000000000000000e+00  0.0000000000000000e+00  0.0000000000000000e+00  0.0000000000000000e+00  0.0000000000000000e+00  0.0000000000000000e+00  0.0000000000000000e+00  0.0000000000000000e+00  0.0000000000000000e+00  0.0000000000000000e+00  0.0000000000000000e+00  0.0000000000000000e+00  0.0000000000000000e+00  0.0000000000000000e+00  0.0000000000000000e+00  0.0000000000000000e+00  0.0000000000000000e+00  0.0000000000000000e+00  0.0000000000000000e+00  0.0000000000000000e+00  0.0000000000000000e+00  0.0000000000000000e+00  0.0000000000000000e+00  0.0000000000000000e+00  0.0000000000000000e+00  0.0000000000000000e+00  0.0000000000000000e+00  0.0000000000000000e+00  0.0000000000000000e+00  0.0000000000000000e+00  0.0000000000000000e+00  0.0000000000000000e+00  0.0000000000000000e+00  0.0000000000000000e+00  0.0000000000000000e+00  0.0000000000000000e+00  0.0000000000000000e+00  0.0000000000000000e+00  0.0000000000000000e+00  0.0000000000000000e+00  0.0000000000000000e+00  0.0000000000000000e+00  0.0000000000000000e+00  0.0000000000000000e+00  0.0000000000000000e+00  0.0000000000000000e+00  0.0000000000000000e+00  0.0000000000000000e+00  0.0000000000000000e+00  0.0000000000000000e+00  0.0000000000000000e+00  0.0000000000000000e+00  0.0000000000000000e+00  0.0000000000000000e+00  0.0000000000000000e+00  0.0000000000000000e+00  0.0000000000000000e+00  0.0000000000000000e+00  0.0000000000000000e+00  0.0000000000000000e+00  0.0000000000000000e+00  0.0000000000000000e+00  0.0000000000000000e+00  0.0000000000000000e+00  0.0000000000000000e+00  0.0000000000000000e+00  0.0000000000000000e+00  0.0000000000000000e+00  0.0000000000000000e+00  0.0000000000000000e+00  0.0000000000000000e+00  0.0000000000000000e+00  0.0000000000000000e+00  0.0000000000000000e+00  0.0000000000000000e+00  0.0000000000000000e+00  0.0000000000000000e+00  0.0000000000000000e+00  0.0000000000000000e+00  0.0000000000000000e+00  0.0000000000000000e+00  0.0000000000000000e+00  0.0000000000000000e+00  0.0000000000000000e+00  0.0000000000000000e+00  0.0000000000000000e+00  0.0000000000000000e+00  0.0000000000000000e+00  0.0000000000000000e+00  0.0000000000000000e+00  0.0000000000000000e+00  0.0000000000000000e+00  0.0000000000000000e+00  0.0000000000000000e+00  0.0000000000000000e+00  0.0000000000000000e+00  0.0000000000000000e+00  0.0000000000000000e+00  0.0000000000000000e+00  0.0000000000000000e+00  0.0000000000000000e+00  0.0000000000000000e+00  0.0000000000000000e+00  0.0000000000000000e+00  0.0000000000000000e+00  0.0000000000000000e+00  0.0000000000000000e+00  0.0000000000000000e+00  0.0000000000000000e+00  0.0000000000000000e+00  0.0000000000000000e+00  0.0000000000000000e+00  0.0000000000000000e+00  0.0000000000000000e+00  0.0000000000000000e+00  0.0000000000000000e+00  0.0000000000000000e+00  0.0000000000000000e+00  0.0000000000000000e+00  0.0000000000000000e+00  0.0000000000000000e+00  0.0000000000000000e+00  0.0000000000000000e+00  0.0000000000000000e+00  0.0000000000000000e+00  0.0000000000000000e+00  0.0000000000000000e+00  0.0000000000000000e+00  0.0000000000000000e+00  0.0000000000000000e+00  0.0000000000000000e+00  0.0000000000000000e+00  0.0000000000000000e+00  0.0000000000000000e+00  0.0000000000000000e+00  0.0000000000000000e+00  0.0000000000000000e+00  0.0000000000000000e+00  0.0000000000000000e+00  0.0000000000000000e+00  0.0000000000000000e+00  0.0000000000000000e+00  0.0000000000000000e+00  0.0000000000000000e+00  0.0000000000000000e+00  0.0000000000000000e+00  0.0000000000000000e+00  0.0000000000000000e+00  0.0000000000000000e+00  0.0000000000000000e+00  0.0000000000000000e+00  0.0000000000000000e+00  0.0000000000000000e+00  0.0000000000000000e+00  0.0000000000000000e+00  0.0000000000000000e+00  0.0000000000000000e+00  0.0000000000000000e+00  0.0000000000000000e+00  0.0000000000000000e+00  0.0000000000000000e+00  0.0000000000000000e+00  0.0000000000000000e+00  0.0000000000000000e+00  0.0000000000000000e+00  0.0000000000000000e+00  0.0000000000000000e+00  0.0000000000000000e+00  0.0000000000000000e+00  0.0000000000000000e+00  0.0000000000000000e+00  0.0000000000000000e+00  0.0000000000000000e+00  0.0000000000000000e+00  0.0000000000000000e+00  0.0000000000000000e+00  0.0000000000000000e+00  0.0000000000000000e+00  0.0000000000000000e+00  0.0000000000000000e+00  0.0000000000000000e+00  0.0000000000000000e+00  0.0000000000000000e+00  0.0000000000000000e+00  0.0000000000000000e+00  0.0000000000000000e+00  0.0000000000000000e+00  0.0000000000000000e+00  0.0000000000000000e+00  0.0000000000000000e+00  0.0000000000000000e+00  0.0000000000000000e+00  0.0000000000000000e+00  0.0000000000000000e+00  0.0000000000000000e+00  0.0000000000000000e+00  0.0000000000000000e+00  0.0000000000000000e+00  0.0000000000000000e+00  0.0000000000000000e+00  0.0000000000000000e+00  0.0000000000000000e+00  0.0000000000000000e+00  0.0000000000000000e+00  0.0000000000000000e+00  0.0000000000000000e+00  0.0000000000000000e+00  0.0000000000000000e+00  0.0000000000000000e+00  0.0000000000000000e+00  0.0000000000000000e+00  0.0000000000000000e+00  0.0000000000000000e+00  0.0000000000000000e+00  0.0000000000000000e+00  0.0000000000000000e+00  0.0000000000000000e+00  0.0000000000000000e+00  0.0000000000000000e+00  0.0000000000000000e+00  0.0000000000000000e+00  0.0000000000000000e+00  0.0000000000000000e+00  0.0000000000000000e+00  0.0000000000000000e+00  0.0000000000000000e+00  0.0000000000000000e+00  0.0000000000000000e+00  0.0000000000000000e+00  0.0000000000000000e+00  0.0000000000000000e+00  0.0000000000000000e+00  0.0000000000000000e+00  0.0000000000000000e+00  0.0000000000000000e+00  0.0000000000000000e+00  0.0000000000000000e+00  0.0000000000000000e+00  0.0000000000000000e+00  0.0000000000000000e+00  0.0000000000000000e+00  0.0000000000000000e+00  0.0000000000000000e+00  0.0000000000000000e+00  0.0000000000000000e+00  0.0000000000000000e+00  0.0000000000000000e+00  0.0000000000000000e+00  0.0000000000000000e+00  0.0000000000000000e+00  0.0000000000000000e+00  0.0000000000000000e+00  0.0000000000000000e+00  0.0000000000000000e+00  0.0000000000000000e+00  0.0000000000000000e+00  0.0000000000000000e+00  0.0000000000000000e+00  0.0000000000000000e+00  0.0000000000000000e+00  0.0000000000000000e+00  0.0000000000000000e+00  0.0000000000000000e+00  0.0000000000000000e+00  0.0000000000000000e+00  0.0000000000000000e+00  0.0000000000000000e+00  0.0000000000000000e+00  0.0000000000000000e+00  0.0000000000000000e+00  0.0000000000000000e+00  0.0000000000000000e+00  0.0000000000000000e+00  0.0000000000000000e+00  0.0000000000000000e+00  0.0000000000000000e+00  0.0000000000000000e+00  0.0000000000000000e+00  0.0000000000000000e+00  0.0000000000000000e+00  0.0000000000000000e+00  0.0000000000000000e+00  0.0000000000000000e+00  0.0000000000000000e+00  0.0000000000000000e+00  0.0000000000000000e+00  0.0000000000000000e+00  0.0000000000000000e+00  0.0000000000000000e+00  0.0000000000000000e+00  0.0000000000000000e+00  0.0000000000000000e+00  0.0000000000000000e+00  0.0000000000000000e+00  0.0000000000000000e+00  0.0000000000000000e+00  0.0000000000000000e+00  0.0000000000000000e+00  0.0000000000000000e+00  0.0000000000000000e+00  0.0000000000000000e+00  0.0000000000000000e+00  0.0000000000000000e+00  0.0000000000000000e+00  0.0000000000000000e+00  0.0000000000000000e+00  0.0000000000000000e+00  0.0000000000000000e+00  0.0000000000000000e+00  0.0000000000000000e+00  0.0000000000000000e+00  0.0000000000000000e+00  0.0000000000000000e+00  0.0000000000000000e+00  0.0000000000000000e+00  0.0000000000000000e+00  0.0000000000000000e+00  0.0000000000000000e+00  0.0000000000000000e+00  0.0000000000000000e+00  0.0000000000000000e+00  0.0000000000000000e+00  0.0000000000000000e+00  0.0000000000000000e+00  0.0000000000000000e+00  0.0000000000000000e+00  0.0000000000000000e+00  0.0000000000000000e+00  0.0000000000000000e+00  0.0000000000000000e+00  0.0000000000000000e+00  0.0000000000000000e+00  0.0000000000000000e+00  0.0000000000000000e+00  0.0000000000000000e+00  0.0000000000000000e+00  0.0000000000000000e+00  0.0000000000000000e+00  0.0000000000000000e+00  0.0000000000000000e+00  0.0000000000000000e+00  0.0000000000000000e+00  0.0000000000000000e+00  0.0000000000000000e+00  0.0000000000000000e+00  0.0000000000000000e+00  0.0000000000000000e+00  0.0000000000000000e+00  0.0000000000000000e+00  0.0000000000000000e+00  0.0000000000000000e+00  0.0000000000000000e+00  0.0000000000000000e+00  0.0000000000000000e+00  0.0000000000000000e+00  0.0000000000000000e+00  0.0000000000000000e+00  0.0000000000000000e+00  0.0000000000000000e+00  0.0000000000000000e+00  0.0000000000000000e+00  0.0000000000000000e+00  0.0000000000000000e+00  0.0000000000000000e+00  0.0000000000000000e+00  0.0000000000000000e+00  0.0000000000000000e+00  0.0000000000000000e+00  0.0000000000000000e+00  0.0000000000000000e+00  0.0000000000000000e+00  0.0000000000000000e+00  0.0000000000000000e+00  0.0000000000000000e+00  0.0000000000000000e+00  0.0000000000000000e+00  0.0000000000000000e+00  0.0000000000000000e+00  0.0000000000000000e+00  0.0000000000000000e+00  0.0000000000000000e+00  0.0000000000000000e+00  0.0000000000000000e+00  0.0000000000000000e+00  0.0000000000000000e+00  0.0000000000000000e+00  0.0000000000000000e+00  0.0000000000000000e+00  0.0000000000000000e+00  0.0000000000000000e+00  0.0000000000000000e+00  0.0000000000000000e+00  0.0000000000000000e+00  0.0000000000000000e+00  0.0000000000000000e+00  0.0000000000000000e+00  0.0000000000000000e+00  0.0000000000000000e+00  0.0000000000000000e+00  0.0000000000000000e+00  0.0000000000000000e+00  0.0000000000000000e+00  0.0000000000000000e+00  0.0000000000000000e+00  0.0000000000000000e+00  0.0000000000000000e+00  0.0000000000000000e+00  0.0000000000000000e+00  0.0000000000000000e+00  0.0000000000000000e+00  0.0000000000000000e+00  0.0000000000000000e+00  0.0000000000000000e+00  0.0000000000000000e+00  0.0000000000000000e+00  0.0000000000000000e+00  0.0000000000000000e+00  0.0000000000000000e+00  0.0000000000000000e+00  0.0000000000000000e+00  0.0000000000000000e+00  0.0000000000000000e+00  0.0000000000000000e+00  0.0000000000000000e+00  0.0000000000000000e+00  0.0000000000000000e+00  0.0000000000000000e+00  0.0000000000000000e+00  0.0000000000000000e+00  0.0000000000000000e+00  0.0000000000000000e+00  0.0000000000000000e+00  0.0000000000000000e+00  0.0000000000000000e+00  0.0000000000000000e+00  0.0000000000000000e+00  0.0000000000000000e+00  0.0000000000000000e+00  0.0000000000000000e+00  0.0000000000000000e+00  0.0000000000000000e+00  0.0000000000000000e+00  0.0000000000000000e+00  0.0000000000000000e+00  0.0000000000000000e+00  0.0000000000000000e+00  0.0000000000000000e+00  0.0000000000000000e+00  0.0000000000000000e+00  0.0000000000000000e+00  0.0000000000000000e+00  0.0000000000000000e+00  0.0000000000000000e+00  0.0000000000000000e+00  0.0000000000000000e+00  0.0000000000000000e+00  0.0000000000000000e+00  0.0000000000000000e+00  0.0000000000000000e+00  0.0000000000000000e+00  0.0000000000000000e+00  0.0000000000000000e+00  0.0000000000000000e+00  0.0000000000000000e+00  0.0000000000000000e+00  0.0000000000000000e+00  0.0000000000000000e+00  0.0000000000000000e+00  0.0000000000000000e+00  0.0000000000000000e+00  0.0000000000000000e+00  0.0000000000000000e+00  0.0000000000000000e+00  0.0000000000000000e+00  0.0000000000000000e+00  0.0000000000000000e+00  0.0000000000000000e+00  0.0000000000000000e+00  0.0000000000000000e+00  0.0000000000000000e+00  0.0000000000000000e+00  0.0000000000000000e+00  0.0000000000000000e+00  0.0000000000000000e+00  0.0000000000000000e+00  0.0000000000000000e+00  0.0000000000000000e+00  0.0000000000000000e+00  0.0000000000000000e+00  0.0000000000000000e+00  0.0000000000000000e+00  0.0000000000000000e+00  0.0000000000000000e+00  0.0000000000000000e+00  0.0000000000000000e+00  0.0000000000000000e+00  0.0000000000000000e+00  0.0000000000000000e+00  0.0000000000000000e+00  0.0000000000000000e+00  0.0000000000000000e+00  0.0000000000000000e+00  0.0000000000000000e+00  0.0000000000000000e+00  0.0000000000000000e+00  0.0000000000000000e+00  0.0000000000000000e+00  0.0000000000000000e+00  0.0000000000000000e+00  0.0000000000000000e+00  0.0000000000000000e+00  0.0000000000000000e+00  0.0000000000000000e+00  0.0000000000000000e+00  0.0000000000000000e+00  0.0000000000000000e+00  0.0000000000000000e+00  0.0000000000000000e+00  0.0000000000000000e+00  0.0000000000000000e+00  0.0000000000000000e+00  0.0000000000000000e+00  0.0000000000000000e+00  0.0000000000000000e+00  0.0000000000000000e+00  0.0000000000000000e+00  0.0000000000000000e+00  0.0000000000000000e+00  0.0000000000000000e+00  0.0000000000000000e+00  0.0000000000000000e+00  0.0000000000000000e+00  0.0000000000000000e+00  0.0000000000000000e+00  0.0000000000000000e+00  0.0000000000000000e+00  0.0000000000000000e+00  0.0000000000000000e+00  0.0000000000000000e+00  0.0000000000000000e+00  0.0000000000000000e+00  0.0000000000000000e+00  0.0000000000000000e+00  0.0000000000000000e+00  0.0000000000000000e+00  0.0000000000000000e+00  0.0000000000000000e+00  0.0000000000000000e+00  0.0000000000000000e+00  0.0000000000000000e+00  0.0000000000000000e+00  0.0000000000000000e+00  0.0000000000000000e+00  0.0000000000000000e+00  0.0000000000000000e+00  0.0000000000000000e+00  0.0000000000000000e+00  0.0000000000000000e+00  0.0000000000000000e+00  0.0000000000000000e+00  0.0000000000000000e+00  0.0000000000000000e+00  0.0000000000000000e+00  0.0000000000000000e+00  0.0000000000000000e+00  0.0000000000000000e+00  0.0000000000000000e+00  0.0000000000000000e+00  0.0000000000000000e+00  0.0000000000000000e+00  0.0000000000000000e+00  0.0000000000000000e+00  0.0000000000000000e+00  0.0000000000000000e+00  0.0000000000000000e+00  0.0000000000000000e+00  0.0000000000000000e+00  0.0000000000000000e+00  0.0000000000000000e+00  0.0000000000000000e+00  0.0000000000000000e+00  0.0000000000000000e+00  0.0000000000000000e+00  0.0000000000000000e+00  0.0000000000000000e+00  0.0000000000000000e+00  0.0000000000000000e+00  0.0000000000000000e+00  0.0000000000000000e+00  0.0000000000000000e+00  0.0000000000000000e+00  0.0000000000000000e+00  0.0000000000000000e+00  0.0000000000000000e+00  0.0000000000000000e+00  0.0000000000000000e+00  0.0000000000000000e+00  0.0000000000000000e+00  0.0000000000000000e+00  0.0000000000000000e+00  0.0000000000000000e+00  0.0000000000000000e+00  0.0000000000000000e+00  0.0000000000000000e+00  0.0000000000000000e+00  0.0000000000000000e+00  0.0000000000000000e+00  0.0000000000000000e+00  0.0000000000000000e+00  0.0000000000000000e+00  0.0000000000000000e+00  0.0000000000000000e+00  0.0000000000000000e+00  0