<?xml version="1.0"?>
<VTKFile type="UnstructuredGrid"  version="0.1"  >
<UnstructuredGrid>
<Piece  NumberOfPoints="1757" NumberOfCells="7936">
<Points>
<DataArray  type="Float64"  NumberOfComponents="3"  format="ascii">0 1 0  0 -1 0  0 0 1  0 0 -1  4 0 1  4 -1 0  4 0 -1  4 1 0  0 0.9807852803124523 0.195090322472501  0 0.923879532179443 0.3826834331662315  0 0.8314696114892164 0.5555702342368348  0 0.707106779577703 0.7071067827953921  0 0.5555702316337635 0.8314696132285331  0 0.3826834315824063 0.9238795328354849  0 0.1950903216694607 0.9807852804721869  0 -0.195090322472501 0.9807852803124523  0 -0.3826834331662315 0.923879532179443  0 -0.5555702342368348 0.8314696114892164  0 -0.7071067827953921 0.707106779577703  0 -0.8314696132285331 0.5555702316337635  0 -0.9238795328354849 0.3826834315824063  0 -0.9807852804721869 0.1950903216694607  0 -0.9807852803124523 -0.195090322472501  0 -0.923879532179443 -0.3826834331662315  0 -0.8314696114892164 -0.5555702342368348  0 -0.707106779577703 -0.7071067827953921  0 -0.5555702316337635 -0.8314696132285331  0 -0.3826834315824063 -0.9238795328354849  0 -0.1950903216694607 -0.9807852804721869  0 0.195090322472501 -0.9807852803124523  0 0.3826834331662315 -0.923879532179443  0 0.5555702342368348 -0.8314696114892164  0 0.7071067827953921 -0.707106779577703  0 0.8314696132285331 -0.5555702316337635  0 0.9238795328354849 -0.3826834315824063  0 0.9807852804721869 -0.1950903216694607  4 -0.195090322472501 0.9807852803124523  4 -0.3826834331662315 0.923879532179443  4 -0.5555702342368348 0.8314696114892164  4 -0.7071067827953921 0.707106779577703  4 -0.8314696132285331 0.5555702316337635  4 -0.9238795328354849 0.3826834315824063  4 -0.9807852804721869 0.1950903216694607  4 -0.9807852803124523 -0.195090322472501  4 -0.923879532179443 -0.3826834331662315  4 -0.8314696114892164 -0.5555702342368348  4 -0.707106779577703 -0.7071067827953921  4 -0.5555702316337635 -0.8314696132285331  4 -0.3826834315824063 -0.9238795328354849  4 -0.1950903216694607 -0.9807852804721869  4 0.195090322472501 -0.9807852803124523  4 0.3826834331662315 -0.923879532179443  4 0.5555702342368348 -0.8314696114892164  4 0.7071067827953921 -0.707106779577703  4 0.8314696132285331 -0.5555702316337635  4 0.9238795328354849 -0.3826834315824063  4 0.9807852804721869 -0.1950903216694607  4 0.9807852803124523 0.195090322472501  4 0.923879532179443 0.3826834331662315  4 0.8314696114892164 0.5555702342368348  4 0.707106779577703 0.7071067827953921  4 0.5555702316337635 0.8314696132285331  4 0.3826834315824063 0.9238795328354849  4 0.1950903216694607 0.9807852804721869  0.2499999999994862 0 1  0.4999999999991029 0 1  0.7499999999983755 0 1  0.9999999999976482 0 1  1.24999999999693 0 1  1.499999999996212 0 1  1.749999999995494 0 1  1.999999999994776 0 1  2.249999999995424 0 1  2.499999999996071 0 1  2.749999999996719 0 1  2.999999999997367 0 1  3.249999999998025 0 1  3.499999999998683 0 1  3.749999999999341 0 1  0.2499999999994862 -1 0  0.4999999999991029 -1 0  0.7499999999983755 -1 0  0.9999999999976482 -1 0  1.24999999999693 -1 0  1.499999999996212 -1 0  1.749999999995494 -1 0  1.999999999994776 -1 0  2.249999999995424 -1 0  2.499999999996071 -1 0  2.749999999996719 -1 0  2.999999999997367 -1 0  3.249999999998025 -1 0  3.499999999998683 -1 0  3.749999999999341 -1 0  0.2499999999994862 0 -1  0.4999999999991029 0 -1  0.7499999999983755 0 -1  0.9999999999976482 0 -1  1.24999999999693 0 -1  1.499999999996212 0 -1  1.749999999995494 0 -1  1.999999999994776 0 -1  2.249999999995424 0 -1  2.499999999996071 0 -1  2.749999999996719 0 -1  2.999999999997367 0 -1  3.249999999998025 0 -1  3.499999999998683 0 -1  3.749999999999341 0 -1  0.2499999999994862 1 0  0.4999999999991029 1 0  0.7499999999983755 1 0  0.9999999999976482 1 0  1.24999999999693 1 0  1.499999999996212 1 0  1.749999999995494 1 0  1.999999999994776 1 0  2.249999999995424 1 0  2.499999999996071 1 0  2.749999999996719 1 0  2.999999999997367 1 0  3.249999999998025 1 0  3.499999999998683 1 0  3.749999999999341 1 0  0 0.2687658172239241 0.1113264469546516  0 -0.3632776934580825 -0.1504745480221339  0 0.1820395197732083 -0.4510798723263696  0 -0.1902402587217505 0.4476830150214721  0 0.4879362984008135 0.4092166148750218  0 0.6343829086119621 0.0556632234773258  0 0.5910197598866042 -0.2255399361631848  0 0.4445731512843002 -0.5790933259520363  0 0.2254026684985662 -0.169876712685859  0 -0.5951201293608752 0.2238415075107361  0 -0.4486735207585713 0.5773948972995875  0 -0.5351922365178927 -0.428790665408763  0 -0.6816388467290413 -0.07523727401106695  0 -0.2767589760899165 0.1486042334996691  0 -0.09512012936087527 0.7238415075107361  0 0.2584332604279762 0.5773948989084321  0 0.09101975988660417 -0.7255399361631848  0 -0.2625336299022473 -0.5790933275608808  0 0.03926277925108676 0.2795047309880618  0 -0.09061908684243711 -0.3007772101742517  0 -0.04725593811707923 -0.01957405053374114  0 0.7791312203957026 0.2191733283217787  0 0.8171914543059811 0.0278316117386629  0 0.7059079152901282 0.3959500240206266  0 0.5611596035063878 0.2324399191761738  0 0.5975215389892583 0.5581616988352069  0 0.3783510578123688 0.2602715309148367  0 0.4515743629179431 0.0834948352159887  0 0.6842263420598925 -0.4808883787672213  0 0.5758399670398462 -0.6431000527648696  0 0.7574496463610445 -0.3041116838727955  0 0.5177964555854522 -0.4023166310576106  0 0.795509879943302 -0.1127699680815924  0 0.3865296398299062 -0.3383099042447772  0 0.3133063355287543 -0.515086599139203  0 0.6127013342492831 -0.08493835634292948  0 0.4298927885552641 -0.05710674460426658  0 0.4082112141925852 -0.1977083244245219  0 0.2470842428612451 -0.02927513286560368  0 0.2037210941358873 -0.3104782925061143  0 -0.6862765267970281 0.4800391644409969  0 -0.5778901517769817 0.6422508384386452  0 -0.75949983109818 0.3032624695465712  0 -0.5218968250597232 0.4006182024051618  0 -0.7975600646804376 0.111920753755368  0 -0.3926801940413129 0.3357622612661041  0 -0.319456889740161 0.5125389561605298  0 -0.8027591894542421 -0.2289603535886492  0 -0.8408194233645206 -0.03761863700553347  0 -0.7295358843486679 -0.4057370492874972  0 -0.608415541623467 -0.252013969709915  0 -0.6211495080477978 -0.5679487241020775  0 -0.4492349649879877 -0.2896326067154484  0 -0.5224582700935619 -0.1128559110166004  0 -0.6383794880449583 0.07430211674983456  0 -0.4791989114094789 0.03668347974430108  0 -0.4359395527253959 0.1862228705052026  0 -0.3200183347739995 -0.0009351572612323888  0 -0.2334996174058335 0.2981436242605706  0 0.3205583460051912 0.7506372158719585  0 0.4827700200028396 0.6422508408519121  0 0.1437816511107655 0.8238605201731104  0 0.08165656553355047 0.6506182032095841  0 -0.04756006468043764 0.861920753755368  0 -0.1426801940413129 0.5857622612661041  0 0.03409650085311283 0.5125389569649521  0 -0.2389017812635534 0.8238605198450895  0 -0.4156784769624014 0.7506372147395153  0 -0.2718968250597233 0.6506182024051618  0 -0.3226085307423268 -0.7514864301981828  0 -0.4848202047399751 -0.6431000551781365  0 -0.145831835847901 -0.8247097344993348  0 -0.08575693500782154 -0.6523166318620328  0 0.04550987994330209 -0.8627699680815923  0 0.1365296398299063 -0.5883099042447772  0 -0.04024705506451945 -0.5150865999436252  0 0.2368515965264178 -0.8247097341713139  0 0.4136282922252659 -0.7514864290657397  0 0.2677964555854522 -0.6523166310576105  0 0.2635995388259502 0.3443606729315418  0 0.1540142982375054 0.1954155889713567  0 0.3731847794143949 0.493305756891727  0 0.1488480198395315 0.428449814948247  0 -0.07548873973533189 0.363593873004767  0 -0.3129056616801649 -0.3647839377915074  0 -0.2269483901502598 -0.2256258790981928  0 -0.39886293321007 -0.503941996484822  0 -0.1765763583723422 -0.4399352688675663  0 0.04571021646538562 -0.3759285412503107  0 0.1107549395534224 0.04587619821045523  0 0.08907336519074349 -0.09472538160980006  0 -0.06893751247975817 -0.1601756303539964  0 0.06739179082806454 -0.2353269614300554  0 -0.2052668157875809 -0.08502429927793752  0 -0.1620074571034979 0.06451509148296398  0 -0.003996579432996236 0.1299653402271604  0 -0.1187480984194149 0.2140544822438655  1.518966646425677 -0.7148990903108838 0.6992276386647419  2.482205333411837 -0.6987038418337225 0.7154110296932782  3.244324580033718 -0.7493596623679175 0.6621631947004006  0.7556754217642816 -0.6621631932530087 0.7493596636468891  0.3778377108821408 -0.9116367678743256 0.4109968411796531  0.3778377108821408 -0.6849608699610427 0.7285798560365305  0.877837710880965 -0.9116367678743256 0.4109968411796531  0.3778377108821408 -0.3540058866663175 0.9352431941509087  0.8778377108809655 -0.3540058866663175 0.9352431941509087  3.622162290016859 -0.4109968394715655 0.9116367686443895  3.622162290016859 -0.7285798569284849 0.6849608690122877  3.122162290015542 -0.4109968394715655 0.9116367686443895  3.622162290016859 -0.9352431936044623 0.3540058881099666  3.122162290015542 -0.9352431936044623 0.3540058881099666  1.259483323211666 -0.3877965700001217 0.9217449865858456  1.75948332321023 -0.3877965700001217 0.9217449865858456  1.13732103409498 -0.6889872554463009 0.724773455524258  2.241102666703306 -0.3772194123706772 0.9261239198566901  2.741102666704602 -0.3772194123706772 0.9261239198566901  2.000585989918757 -0.7068477827492673 0.7073656847928408  2.863264956722777 -0.7245210908089098 0.6892526307335123  1.759483323210227 -0.9259857154165186 0.3775585449232451  1.259483323211663 -0.9259857154165186 0.3775585449232451  2.741102666704602 -0.9216029084789502 0.3881340993563173  2.241102666703306 -0.9216029084789502 0.3881340993563173  0.1889188554410704 -0.977659646175997 0.2101942345522928  0.1889188554410704 -0.9178673296471621 0.3968873456868936  0.3778377108821408 -0.8139384171514044 0.5809511623923878  0.1889188554410704 -0.8228018861858918 0.5683282995671944  0.5667565663232113 -0.8048813138078545 0.5934358185035193  0.5667565663232113 -0.6736421605894815 0.7390576699259235  0.1889188554410704 -0.6961166286735679 0.7179287146257252  0.938918855439
[...]
<PointData  Scalars="f"> 
<DataArray  type="Float64"  Name="f"  format="ascii">4.0111726176957703e+00  4.0192814056090649e+00  4.0082377468830632e+00  4.0181938460321760e+00  3.9872147125066681e+00  3.9937251884864984e+00  3.9894630109751832e+00  3.9789868143879383e+00  4.0098887993995911e+00  4.0085345006776274e+00  4.0073027928933334e+00  4.0063910365377007e+00  4.0061386649337809e+00  4.0063324848273369e+00  4.0069900845532898e+00  4.0089674961078776e+00  4.0103043057599512e+00  4.0119536331333343e+00  4.0136961578743087e+00  4.0154830142894520e+00  4.0169680442700804e+00  4.0181643513194034e+00  4.0195894789387019e+00  4.0200160584801248e+00  4.0204439769291662e+00  4.0207730402749311e+00  4.0207703011534743e+00  4.0203939390121164e+00  4.0195523701014082e+00  4.0166401031592009e+00  4.0148445862277651e+00  4.0134706991036619e+00  4.0128037288284650e+00  4.0125470429260250e+00  4.0124822797456847e+00  4.0119632510025722e+00  3.9885373749873452e+00  3.9899438653256132e+00  3.9912119874436649e+00  3.9923614860015055e+00  3.9932708479116852e+00  3.9938397363368443e+00  3.9939844722759732e+00  3.9939089049135506e+00  3.9940014954699690e+00  3.9938834728368309e+00  3.9936582678937720e+00  3.9933806021575022e+00  3.9927326027313232e+00  3.9915381329132518e+00  3.9871318503776987e+00  3.9850923791992625e+00  3.9833173129925932e+00  3.9817621680867670e+00  3.9805716895631633e+00  3.9797363242944321e+00  3.9792217204197615e+00  3.9790958694752239e+00  3.9795348275258737e+00  3.9802694189582124e+00  3.9814705033492821e+00  3.9830237537466506e+00  3.9846817401341199e+00  3.9861157196117487e+00  4.0068739903964472e+00  4.0044850167207802e+00  4.0009404051955553e+00  3.9971323710454798e+00  3.9894013638889239e+00  3.9804863521297333e+00  3.9730070836873344e+00  3.9690167974170136e+00  3.9703522044620443e+00  3.9750428872275667e+00  3.9807864394334698e+00  3.9850540280722377e+00  3.9863501754654456e+00  3.9872953776566189e+00  3.9873493076881696e+00  4.0184840636888266e+00  4.0167274374047084e+00  4.0135627713515794e+00  4.0096238347106432e+00  3.9998465862815795e+00  3.9890743459291693e+00  3.9805556683771846e+00  3.9765685503215749e+00  3.9789537978516538e+00  3.9848941753063341e+00  3.9917968187397150e+00  3.9964746806422031e+00  3.9959894582228639e+00  3.9952263638193024e+00  3.9943320279790751e+00  4.0187681875305437e+00  4.0195527450658437e+00  4.0194079909734883e+00  4.0178178538334075e+00  4.0091244035817146e+00  3.9988200758224850e+00  3.9906310009205459e+00  3.9865502608679706e+00  3.9832656224968752e+00  3.9820594784426118e+00  3.9822240823460038e+00  3.9839944487218055e+00  3.9869200461480077e+00  3.9887995612528084e+00  3.9894294137821298e+00  4.0110550085114705e+00  4.0104602541316456e+00  4.0088953925129909e+00  4.0060124043051069e+00  3.9980124485600008e+00  3.9876236521929074e+00  3.9781525080694737e+00  3.9718747935590839e+00  3.9671433009485026e+00  3.9642284682894768e+00  3.9643075941015322e+00  3.9676914704920279e+00  3.9726459285117639e+00  3.9764568675514633e+00  3.9783947569200890e+00  4.0084834270484357e+00  4.0176208269876792e+00  4.0137551033825716e+00  4.0112323134829051e+00  4.0070435649176552e+00  4.0108751804626754e+00  4.0121246262297960e+00  4.0129131878185831e+00  4.0111198540093733e+00  4.0169839283094015e+00  4.0129661546729114e+00  4.0203218289634011e+00  4.0199336234740093e+00  4.0141386203956726e+00  4.0095532434736407e+00  4.0066974205834383e+00  4.0169493079392256e+00  4.0196898074420169e+00  4.0089011007488748e+00  4.0155887474901890e+00  4.0109640157755662e+00  4.0094179220248325e+00  4.0111302671614384e+00  4.0078158071295613e+00  4.0086584874353628e+00  4.0066325522192408e+00  4.0075681038237487e+00  4.0098889669883517e+00  4.0125050068762116e+00  4.0128579671702065e+00  4.0124390130543075e+00  4.0123625205629212e+00  4.0117906723844134e+00  4.0121389337301823e+00  4.0132083011199313e+00  4.0117393405696955e+00  4.0109658091791136e+00  4.0116083331570094e+00  4.0097855302787702e+00  4.0124114684505923e+00  4.0154260744832060e+00  4.0133649202111759e+00  4.0171702896498784e+00  4.0150935045713663e+00  4.0185302911132137e+00  4.0142590092506767e+00  4.0122788356286740e+00  4.0198967768518363e+00  4.0196668132089028e+00  4.0202914525602926e+00  4.0199791383632126e+00  4.0206769132217319e+00  4.0194035029118629e+00  4.0194633412189855e+00  4.0185428549436928e+00  4.0179171690304933e+00  4.0160777712148503e+00  4.0158873941288178e+00  4.0124433793909597e+00  4.0064549724884468e+00  4.0062869125694638e+00  4.0072375393559749e+00  4.0077333457481865e+00  4.0087810641567101e+00  4.0104286528056843e+00  4.0081520130650290e+00  4.0097651426074314e+00  4.0113984981862769e+00  4.0109575902082275e+00  4.0203746442867585e+00  4.0206828771026313e+00  4.0194185459306420e+00  4.0186478418285798e+00  4.0177800930746423e+00  4.0155161340336250e+00  4.0172472602865623e+00  4.0157736280758511e+00  4.0139019476526636e+00  4.0144843484272785e+00  4.0070341091909221e+00  4.0081820992675334e+00  4.0066110632443142e+00  4.0073071572880936e+00  4.0101207774131504e+00  4.0187112372139184e+00  4.0164910810184811e+00  4.0200862380350033e+00  4.0180410643965514e+00  4.0147684060803952e+00  4.0088969416401188e+00  4.0105253305286253e+00  4.0130542483593796e+00  4.0125549012754123e+00  4.0143191256192425e+00  4.0122004718940385e+00  4.0093318287964337e+00  4.0107083450936649e+00  3.9822220202156386e+00  3.9784218580077981e+00  3.9933358400104741e+00  4.0062024110552548e+00  4.0160019736412824e+00  4.0123578710789731e+00  4.0081446758422379e+00  4.0080976228551108e+00  4.0005589211519377e+00  3.9904193862195068e+00  3.9931159089966255e+00  3.9898910095715405e+00  3.9947633446781738e+00  3.9948493078106040e+00  3.9937886512219722e+00  3.9731675601004737e+00  3.9963940960506248e+00  3.9709697247523614e+00  3.9886971259818167e+00  3.9703168077234832e+00  3.9893380880524036e+00  3.9762334407402080e+00  3.9993675834367859e+00  3.9878591637781358e+00  3.9749788883362136e+00  4.0180342169038488e+00  4.0168241215959757e+00  4.0143993314714619e+00  4.0152653006356926e+00  4.0121652441040068e+00  4.0100089353863853e+00  4.0133918024164688e+00  4.0088811644366533e+00  4.0134763577780728e+00  4.0130988607834848e+00  4.0165364988403214e+00  4.0073862182544406e+00  4.0115248812606197e+00  4.0102339027773102e+00  4.0097589297400340e+00  4.0075457568152801e+00  4.0082182492165730e+00  4.0062443613451473e+00  4.0051245079978219e+00  4.0029048755045746e+00  4.0032032190469407e+00  3.9984607863973114e+00  3.9887122192203215e+00  3.9901457276117678e+00  3.9918242086350486e+00  3.9914381169913615e+00  3.9920148241338378e+00  3.9935008504922975e+00  3.9926101223454826e+00  3.9876893625505776e+00  3.9887300136295014e+00  3.9905241125286630e+00  3.9889171468361795e+00  3.9917287281935496e+00  3.9935671969204538e+00  3.9941744795071732e+00  3.9941613946712495e+00  3.9946126258064929e+00  3.9942829888473019e+00  3.9950479726912320e+00  3.9952696574677620e+00  3.9956330090390790e+00  3.9943184415803845e+00  3.9953485318566280e+00  3.9964484855437692e+00  3.9856754527938034e+00  3.9812524423382518e+00  3.9764891180674842e+00  3.9889549623752085e+00  3.9768535775725375e+00  3.9707171453966601e+00  3.9965520603968634e+00  3.9984196000935572e+00  3.9936650422343174e+00  4.0015078234321519e+00  3.9902934408987649e+00  3.9693142892354234e+00  3.9729556549524112e+00  3.9777458913106019e+00  3.9803193687218421e+00  3.9741068910386650e+00  3.9851476268441139e+00  3.9887946536274312e+00  3.9734950562105831e+00  3.9711028062912570e+00  3.9702402042465441e+00  3.9698846286486025e+00  3.9717732794380747e+00  3.9848062980008954e+00  3.9878465807154599e+00  3.9901841938903218e+00  3.9889492510458497e+00  3.9919454096587965e+00  3.9758424819099862e+00  3.9819019273041341e+00  3.9852256243161954e+00  3.9924878496502578e+00  3.9781625765000586e+00  3.9915743438468279e+00  4.0054297500925147e+00  3.9968435775665276e+00  4.0021444780507096e+00  4.0032946856007490e+00  3.9926282117299476e+00  3.9858518768040749e+00  3.9802540939590374e+00  3.9791774508767821e+00  3.9829127199604200e+00  3.9754568079606418e+00  3.9755881141896947e+00  3.9735046514681178e+00  3.9719412705829646e+00  3.9728654801664898e+00  3.9922792805244876e+00  3.9922554625776967e+00  3.9886232291940371e+00  3.9892162570118122e+00  3.9974568416175775e+00  3.9950400956371510e+00  4.0193892405379446e+00  4.0211358313943446e+00  4.0194008680119406e+00  4.0148594218679658e+00  4.0215056634187576e+00  4.0203222033192008e+00  3.9949339740318428e+00  3.9947077416108909e+00  3.9966797964026117e+00  3.9936482643923585e+00  3.9910811002497275e+00  4.0078336524168829e+00  3.9858860679391901e+00  4.0107740927018156e+00  3.9823601011239771e+00  3.9980942321073245e+00  3.9845920568964392e+00  3.9937205019156936e+00  3.9916410473824380e+00  4.0132817815197477e+00  3.9889166642489284e+00  3.9900615366566532e+00  4.0209140312526284e+00  4.0204798847784415e+00  4.0203827094046547e+00  4.0199270866175008e+00  4.0207925446126573e+00  4.0194818417299238e+00  4.0193173496050738e+00  4.0183185606481997e+00  4.0179816869241565e+00  4.0160223959817491e+00  4.0173831803272542e+00  4.0121459761035956e+00  4.0200836055248397e+00  4.0208518128606006e+00  4.0216016857117260e+00  4.0210963294651147e+00  4.0215335412707702e+00  4.0196107380613801e+00  4.0210481595210563e+00  4.0217529939522452e+00  4.0208875639345072e+00  4.0204354280067669e+00  3.9942168016561967e+00  3.9942828894253721e+00  3.9949211565843492e+00  3.9941986963837435e+00  3.9954881661000394e+00  3.9951963100255412e+00  3.9939579749371243e+00  3.9969471960337795e+00  3.9960428084464774e+00  3.9958310717142611e+00  3.9950157493970444e+00  3.9960299611218106e+00  3.9937047545766098e+00  3.9944265431376356e+00  3.9930284764587771e+00  3.9947742882534394e+00  3.9917384263806044e+00  3.9915241137025377e+00  3.9929625276756147e+00  3.9901961506902954e+00  3.9935806190252334e+00  3.9877702100420294e+00  4.0099531292402624e+00  3.9971297605458718e+00  3.9942489966766255e+00  3.9869396975632054e+00  4.0037174642963178e+00  3.9915595260306764e+00  3.9808813183605687e+00  4.0110684985735157e+00  4.0132629279753749e+00  4.0082761719147237e+00  4.0159320837039711e+00  4.0044340721247513e+00  3.9794472689554921e+00  3.9830381757753264e+00  3.9882050326676008e+00  3.9905048534353615e+00  3.9854164994763979e+00  3.9947381787039493e+00  3.9989263407586066e+00  3.9820996316744295e+00  3.9853494946286379e+00  3.9833621148869507e+00  3.9890143687425454e+00  3.9844021400330774e+00  3.9919834104736971e+00  3.9951563749375008e+00  3.9957800033728605e+00  3.9971873158361966e+00  3.9944806116922202e+00  3.9894464572202852e+00  3.9951189164948802e+00  3.9998466516330313e+00  4.0048902849088703e+00  3.9943816884588919e+00  4.0066850237061260e+00  4.0171695686100986e+00  4.0111492013136676e+00  4.0162273705202107e+00  4.0164178569408175e+00  3.9865146425825007e+00  3.9851994780183282e+00  3.9874949912392839e+00  3.9853762917366113e+00  3.9901614863547348e+00  3.9900430619672802e+00  3.9894550882572015e+00  3.9861235011935241e+00  3.9880519798690632e+00  3.9879427255154498e+00  3.9898507715989555e+00  3.9925698564378114e+00  3.9915193046816126e+00  3.9916540577089168e+00  3.9706501535202485e+00  3.9758290103080136e+00  4.0132359678422169e+00  4.0130123594949669e+00  4.0128921610572350e+00  4.0116734095733797e+00  4.0154068003285772e+00  4.0157686316326924e+00  3.9838964109499400e+00  3.9801886469832226e+00  3.9799678778926233e+00  3.9780255775347699e+00  3.9709590525954455e+00  4.0109863836427069e+00  3.9859819649540378e+00  4.0071809005118091e+00  3.9820455065715459e+00  3.9762378725797261e+00  3.9748462370036926e+00  3.9707489615845843e+00  3.9786717407971395e+00  4.0048917491934315e+00  3.9662184216272709e+00  3.9679940958394626e+00  4.0122047442084927e+00  4.0126833203739274e+00  4.0129949009082280e+00  4.0126555713477705e+00  4.0132605939088037e+00  4.0132780678865538e+00  4.0127567786053548e+00  4.0097312667524516e+00  4.0114557107057562e+00  4.0129847352836299e+00  4.0122075582325438e+00  4.0128728576806685e+00  4.0134797916548965e+00  4.0136277742737345e+00  4.0150103161262205e+00  4.0139757031523811e+00  4.0169974686789800e+00  4.0175438542702802e+00  4.0158497448895254e+00  4.0179783906186026e+00  4.0141684588370108e+00  4.0171373191451245e+00  3.9868338068389262e+00  3.9847672031693144e+00  3.9819266743990127e+00  3.9829407744291667e+00  3.9802275862611332e+00  3.9782896577477769e+00  3.9813611007574972e+00  3.9820350133773466e+00  3.9847832953657742e+00  3.9824655579473562e+00  3.9862954386023337e+00  3.9777836119825456e+00  3.9801239011214160e+00  3.9788570550396400e+00  3.9792940396790604e+00  3.9767935402263812e+00  3.9788258352894421e+00  3.9770933837817286e+00  3.9750893849398805e+00  3.9737212296616753e+00  3.9732274043525657e+00  3.9690489512521374e+00  4.0160988159940718e+00  4.0032230764690864e+00  3.9959179551621702e+00  3.9924155950982003e+00  4.0027138842380259e+00  3.9874449028283356e+00  3.9862156452848105e+00  4.0136741799255633e+00  4.0119504165791113e+00  4.0079105000677968e+00  4.0112592577215276e+00  4.0006018501144274e+00  3.9856434989752265e+00  3.9802402506468044e+00  3.9765026059825179e+00  3.9788052394265687e+00  3.9769836769246236e+00  3.9728846114065339e+00  3.9800428156959957e+00  3.9808929284408907e+00  3.9803521489627167e+00  3.9767254447272014e+00  3.9817729091671041e+00  3.9715443478064461e+00  3.9694576861908160e+00  3.9733938723978706e+00  3.9752207188082602e+00  3.9777803972543189e+00  3.9731325749964155e+00  3.9746087542368924e+00  3.9829138605172356e+00  3.9896014715909360e+00  3.9945998992968699e+00  3.9840196718634262e+00  3.9993242987363820e+00  4.0074478211395688e+00  4.0050901262222629e+00  4.0097821273546428e+00  4.0083576847427356e+00  3.9661942108066444e+00  3.9644249381410464e+00  3.9656141717969335e+00  3.9656935462291205e+00  3.9673545791874547e+00  3.9682980024059367e+00  3.9694250386106473e+00  3.9722876676866292e+00  3.9711529808404205e+00  3.9761243622730409e+00  3.9680464681924397e+00  3.9704155345212238e+00  3.9682135041823705e+00  3.9836918481146362e+00  3.9680805142950963e+00  3.9779671666277823e+00  4.0011464449596046e+00  4.0050095653599183e+00  4.0073257905627599e+00  4.0024949253780138e+00  4.0046500873127657e+00  3.9986224495109215e+00  3.9807033431313639e+00  3.9844809203932123e+00  3.9811343191874080e+00  3.9784121728856090e+00  3.9721924352516393e+00  3.9751306999880569e+00  3.9946715967285953e+00  3.9950665769888118e+00  3.9745893927705516e+00  3.9690939556782907e+00  3.9703033487478065e+00  3.9713792995154886e+00  3.9942361951873715e+00  3.9769853374092738e+00  3.9712819197632334e+00  3.9664480862777354e+00  4.0060520762489604e+00  4.0069126995632711e+00  4.0059514884389369e+00  4.0081607810152251e+00  4.0033806161162691e+00  4.0044081778946712e+00  4.0095652932371042e+00  4.0088906194742657e+00  4.0056392328311823e+00  4.0072549092189176e+00  4.0015414115455421e+00  4.0039417692106829e+00  4.0064249284809224e+00  4.0058990597115471e+00  4.0046343513990532e+00  4.0057509810929943e+00  4.0028182139777080e+00  3.9976709922351019e+00  4.0016219323151550e+00  4.0022178710673346e+00  4.0046077386750820e+00  3.9998018183388289e+00  3.9813116242729416e+00  3.9829462681608541e+00  3.9825718717254204e+00  3.9846843931126719e+00  3.9796992493872239e+00  3.9817627106646123e+00  3.9861352433591666e+00  3.9859608662431794e+00  3.9834086499567496e+00  3.9849271648215780e+00  3.9795924686918287e+00  3.9828803507877719e+00  3.9788029401740950e+00  3.9792845112572302e+00  3.9792894625918098e+00  3.9800489268277195e+00  3.9779765593552656e+00  3.9697043335925510e+00  3.9742763481597048e+00  3.9760853720413185e+00  3.9773907841154164e+00  3.9748924808617958e+00  3.9715623594077658e+00  3.9775723103369582e+00  3.9831610901396997e+00  3.9864114974949225e+00  3.9794919323084001e+00  3.9907635433168718e+00  3.9965817870917362e+00  3.9905423820511245e+00  3.9936353098109825e+00  3.9967210026681053e+00  3.9959442894027837e+00  3.9984236099868924e+00  3.9798991368603325e+00  3.9751501110416201e+00  3.9708671598213541e+00  3.9708976765478283e+00  3.9703867692794930e+00  3.9684145951525189e+00  3.9693535367431019e+00  3.9706267674442008e+00  3.9693815081162738e+00  3.9728947556055587e+00  3.9677044623882134e+00  3.9756340835779032e+00  3.9775928534271907e+00  3.9760107230784865e+00  3.9726336443948282e+00  3.9748225596097457e+00  3.9687467320071006e+00  4.0002028248810539e+00  3.9909966558190946e+00  3.9850244640836432e+00  3.9817771118320269e+00  3.9888509708712103e+00  3.9797130406823005e+00  3.9748060807757306e+00  3.9990103196097087e+00  3.9984799438986554e+00  3.9942879386514805e+00  3.9723835931578120e+00  3.9659740735950888e+00  3.9658952787271438e+00  3.9643432798832268e+00  3.9697462654274069e+00  3.9670868521414215e+00  3.9665577670139660e+00  3.9733462392768639e+00  3.9695774056342197e+00  3.9720522422793407e+00  3.9686319589143881e+00  3.9716531748942696e+00  3.9689174300687222e+00  3.9877557054154966e+00  3.9848943546857951e+00  3.9813883409375617e+00  3.9914092310916893e+00  3.9912082816658958e+00  3.9875710048827639e+00  3.9851621871064524e+00  3.9809996536969821e+00  3.9850568511277751e+00  3.9932333492145848e+00  3.9930791417730394e+00  3.9933518379616828e+00  3.9916881902212289e+00  3.9830036329033010e+00  3.9882639697894513e+00  3.9881593774563009e+00  3.9794345101804356e+00  3.9805184906616504e+00  3.9892004029218144e+00  3.9824359456388390e+00  3.9851129213225733e+00  3.9890625837598899e+00  3.9873829384918973e+00  3.9906319003592214e+00  3.9893845378213708e+00  3.9920356231331904e+00  3.9896461366990725e+00  3.9877022511214189e+00  3.9828839041064854e+00  3.9811827696724045e+00  3.9848271150966608e+00  3.9829018077538731e+00  3.9865094936356966e+00  3.9831598677668110e+00  3.9810407700469650e+00  3.9864972734143778e+00  3.9864379759808610e+00  3.9849173920535486e+00  3.9866498898788705e+00  3.9831714062924681e+00  3.9937245874159721e+00  3.9928988862205204e+00  3.9939327871001189e+00  3.9934691508518858e+00  3.9935887120708027e+00  3.9925719819280614e+00  3.9923772398657911e+00  3.9938193304111662e+00  3.9938207464540643e+00  3.9932987994288531e+00  3.9935958643947860e+00  3.9926762856175073e+00  3.9933080402058296e+00  3.9925463197963813e+00  3.9929221291315380e+00  3.9908159574106850e+00  3.9916535859186149e+00  3.9863228131262169e+00  3.9889779695601368e+00  3.9841300622479321e+00  3.9853515219062001e+00  3.9822584765418911e+00  3.9839172353823988e+00  3.9869847445257305e+00  3.9901167496312913e+00  3.9886748366420495e+00  3.9903469430698495e+00  3.9864913946564369e+00  3.9898560736152633e+00  3.9799826726433247e+00  3.9810835735907402e+00  3.9793643666200627e+00  3.9797873863690105e+00  3.9790650447991078e+00  3.9801383568414423e+00  3.9803870250500033e+00  3.9793836982312838e+00  3.9800124869223970e+00  3.9800134969425698e+00  3.9905599114280812e+00  3.9883238427051269e+00  3.9921985467939192e+00  3.9915614425134738e+00  3.9902830971261429e+00  3.9822568485731544e+00  3.9833385731697732e+00  3.9815888877181349e+00  3.9811054526570744e+00  3.9819213783988059e+00  3.9863737893075277e+00  3.9847887151008776e+00  3.9835374817726321e+00  3.9831623372582414e+00  3.9845983293717269e+00  3.9862562220322824e+00  3.9870087855562697e+00  3.9881335720138695e+00  3.9543228021671162e+00  3.9688434593871826e+00  3.9064997050689980e+00  3.9559435778878345e+00  3.9737502816725754e+00  3.9547891582857146e+00  3.9038969901668970e+00  3.9475989225876447e+00  3.9706430332628799e+00  3.9509412373756962e+00  3.9855785557713062e+00  3.9630546994992764e+00  3.9754355683740608e+00  3.9600306389482576e+00  3.9518898582371227e+00  3.9575840960544597e+00  3.9468928529647900e+00  3.9526783269413204e+00  3.9585628746507329e+00  3.9505267626910308e+00  3.9626232959746321e+00  3.9618504012965188e+00  3.9620469693510603e+00  3.9772192152230352e+00  3.9737558382856970e+00  3.9939529856198317e+00  3.9687616159141554e+00  3.9128406986723165e+00  3