<?xml version="1.0"?>
<VTKFile type="UnstructuredGrid"  version="0.1"  >
<UnstructuredGrid>
<Piece  NumberOfPoints="2849" NumberOfCells="5504">
<Points>
<DataArray  type="Float64"  NumberOfComponents="3"  format="ascii">0 0 0  0 2 0  4 2 0  4 0 0  0 0.06249999999988225 0  0 0.1249999999997431 0  0 0.1874999999996473 0  0 0.2499999999995515 0  0 0.3124999999993696 0  0 0.3749999999991878 0  0 0.4374999999990059 0  0 0.4999999999988241 0  0 0.5624999999986446 0  0 0.6249999999984651 0  0 0.6874999999982856 0  0 0.7499999999981061 0  0 0.8124999999979265 0  0 0.874999999997747 0  0 0.9374999999975675 0  0 0.999999999997388 0  0 1.06249999999755 0  0 1.124999999997712 0  0 1.187499999997874 0  0 1.249999999998036 0  0 1.312499999998197 0  0 1.374999999998359 0  0 1.437499999998521 0  0 1.499999999998683 0  0 1.562499999998848 0  0 1.624999999999012 0  0 1.687499999999177 0  0 1.749999999999342 0  0 1.812499999999506 0  0 1.874999999999671 0  0 1.937499999999835 0  0.06249999999988101 2 0  0.1249999999997626 2 0  0.1874999999996225 2 0  0.2499999999994824 2 0  0.3124999999993856 2 0  0.3749999999992888 2 0  0.437499999999192 2 0  0.4999999999990952 2 0  0.5624999999989143 2 0  0.6249999999987335 2 0  0.6874999999985526 2 0  0.7499999999983717 2 0  0.8124999999981909 2 0  0.87499999999801 2 0  0.9374999999978291 2 0  0.9999999999976482 2 0  1.062499999997466 2 0  1.124999999997284 2 0  1.187499999997102 2 0  1.249999999996919 2 0  1.312499999996737 2 0  1.374999999996555 2 0  1.437499999996373 2 0  1.49999999999619 2 0  1.562499999996013 2 0  1.624999999995837 2 0  1.68749999999566 2 0  1.749999999995483 2 0  1.812499999995306 2 0  1.87499999999513 2 0  1.937499999994953 2 0  1.999999999994776 2 0  2.062499999994935 2 0  2.124999999995095 2 0  2.187499999995254 2 0  2.249999999995413 2 0  2.312499999995572 2 0  2.374999999995731 2 0  2.43749999999589 2 0  2.49999999999605 2 0  2.562499999996215 2 0  2.624999999996379 2 0  2.687499999996543 2 0  2.749999999996708 2 0  2.812499999996873 2 0  2.874999999997037 2 0  2.937499999997202 2 0  2.999999999997367 2 0  3.062499999997531 2 0  3.124999999997696 2 0  3.18749999999786 2 0  3.249999999998025 2 0  3.312499999998189 2 0  3.374999999998354 2 0  3.437499999998519 2 0  3.499999999998683 2 0  3.562499999998848 2 0  3.624999999999012 2 0  3.687499999999177 2 0  3.749999999999341 2 0  3.812499999999506 2 0  3.87499999999967 2 0  3.937499999999835 2 0  4 1.937500000000006 0  4 1.875000000000123 0  4 1.812500000000267 0  4 1.750000000000209 0  4 1.687500000000338 0  4 1.625000000000461 0  4 1.562500000000623 0  4 1.500000000000693 0  4 1.437500000001101 0  4 1.375000000001536 0  4 1.312500000002047 0  4 1.250000000002256 0  4 1.187500000002735 0  4 1.125000000003229 0  4 1.062500000003664 0  4 1.000000000004118 0  4 0.9375000000038636 0  4 0.8750000000036089 0  4 0.8125000000033542 0  4 0.7500000000030995 0  4 0.6875000000028448 0  4 0.6250000000025902 0  4 0.5625000000023355 0  4 0.5000000000020808 0  4 0.4375000000018205 0  4 0.3750000000015605 0  4 0.3125000000013003 0  4 0.2500000000010403 0  4 0.18750000000078 0  4 0.12500000000052 0  4 0.06250000000026001 0  3.937499999999757 0 0  3.874999999999586 0 0  3.812499999999443 0 0  3.749999999999274 0 0  3.687499999998965 0 0  3.624999999998618 0 0  3.562499999998253 0 0  3.499999999998004 0 0  3.437499999998331 0 0  3.374999999998717 0 0  3.312499999999106 0 0  3.249999999999506 0 0  3.187499999999934 0 0  3.125000000000414 0 0  3.06250000000085 0 0  3.000000000001386 0 0  2.937500000001852 0 0  2.875000000002339 0 0  2.812500000002886 0 0  2.750000000003406 0 0  2.687500000003777 0 0  2.625000000004116 0 0  2.56250000000449 0 0  2.500000000004855 0 0  2.437500000005349 0 0  2.375000000005834 0 0  2.312500000006138 0 0  2.250000000006474 0 0  2.187500000006903 0 0  2.125000000007378 0 0  2.06250000000783 0 0  2.000000000008237 0 0  1.937500000007987 0 0  1.875000000007738 0 0  1.812500000007488 0 0  1.750000000007239 0 0  1.68750000000699 0 0  1.625000000006741 0 0  1.562500000006492 0 0  1.500000000006242 0 0  1.437500000005982 0 0  1.375000000005722 0 0  1.312500000005462 0 0  1.250000000005202 0 0  1.187500000004942 0 0  1.125000000004682 0 0  1.062500000004421 0 0  1.000000000004162 0 0  0.9375000000039013 0 0  0.8750000000036411 0 0  0.8125000000033809 0 0  0.7500000000031211 0 0  0.6875000000028608 0 0  0.625000000002601 0 0  0.5625000000023408 0 0  0.500000000002081 0 0  0.4375000000018208 0 0  0.3750000000015605 0 0  0.3125000000013003 0 0  0.2500000000010405 0 0  0.1875000000007803 0 0  0.12500000000052 0 0  0.06250000000025979 0 0  2.751943738452744 0.4502303079023504 0  1.750000000006644 0.4330127018922776 0  1.24999999999692 1.566987298109043 0  2.198013603145998 1.55809283687899 0  3.247881315357668 1.576613977471344 0  0.7521186846436931 0.4233860225293321 0  3.604646881608647 0.7183803468350101 0  0.3953531183914658 1.281619653165416 0  1.25035311411272 0.4314082553323813 0  1.500058852358896 0.8445724375661612 0  1.989156378093928 0.8579334422883895 0  1.750000000009022 1.299038105676122 0  0.9973508174755198 0.8076485688783537 0  2.749999999997339 1.566987298107004 0  3.002717843603222 1.188508528991859 0  2.533455241124366 1.190277318175192 0  2.22583414908933 0.4214378737978327 0  3.279641263780507 0.389092528073727 0  3.552608346638475 1.213748434721428 0  0.7206826926270968 1.613777072928224 0  0.4473966578135999 0.7859714703715941 0  2.767860793511576 0.8832772111385303 0  1.749999999995483 1.694100648860432 0  1.258589614778837 1.151739544308598 0  3.633974596214294 0.3660254037857282 0  3.633974596214256 1.633974596214794 0  0.366025403785061 1.633974596214344 0  0.3660254037865152 0.3660254037856426 0  3.187282366407972 0.799919109919273 0  0.8210937919434733 1.200395787834862 0  2.382690224779792 0.8121957412458931 0  2.148692841347422 1.187388232457183 0  0.7223737376445598 0.7968100196249739 0  0.6342452248785366 0.993183629103228 0  0.9092223047094965 1.004022178356608 0  3.277663095120849 1.201128481856643 0  3.369945356523223 1.00683377232035 0  3.095000105005597 0.9942138194555659 0  0.8747347510596064 0.6155172957038428 0  0.5997576712286465 0.604678746450463 0  3.125299579480445 1.382561253231602 0  3.400244830998071 1.395181206096386 0  1.500000000002971 1.433012701892583 0  1.50429480739393 1.22538882499236 0  1.254294807387878 1.359363421208821 0  1.499999999996201 1.630543973484738 0  1.750000000002252 1.496569377268277 0  1.97400680157751 1.428565471277556 0  1.97400680157074 1.626096742869711 0  3.578627614123561 0.9660643907782188 0  3.395964624008309 0.7591497283771416 0  0.4213748881025329 1.033795561768505 0  0.6082234551674696 1.241007720500139 0  3.802323440804323 0.6091901734185454 0  3.802323440804323 0.8591901734195642 0  1.001235899378206 0.4273971389308567 0  1.12385196579412 0.6195284121053675 0  1.500176557059682 0.4322104786123294 0  1.375205983235808 0.6379903464492712 0  1.62502942618277 0.6387925697292194 0  2.876358921800281 1.377747913549431 0  2.768086542363794 1.189392923583525 0  2.641727620560853 1.378632308141098 0  1.625000000006443 0.2165063509461388 0  1.87500000000744 0.2165063509461388 0  2.474006801571669 1.562540067492997 0  2.365734422135182 1.374185077527091 0  0.1976765591957329 1.39080982658205 0  0.1976765591957329 1.140809826581402 0  1.375176557059481 0.2157041276661906 0  2.998940657677504 1.571800637789174 0  0.8760593423239273 0.2116930112646661 0  1.125176557058441 0.2157041276661906 0  2.112917074548784 0.2107189368989164 0  2.362917074547092 0.2107189368989164 0  3.373940657678175 1.788306988735672 0  3.123940657677517 1.788306988735672 0  2.874999999997353 1.783493649053502 0  2.349006801571024 1.779046418439495 0  2.624999999996695 1.783493649053502 0  1.248704834917208 0.8261105032222574 0  2.099006801570387 1.779046418439495 0  0.6260593423228871 0.2116930112646661 0  1.744607615226412 0.8512529399272754 0  1.869578189050286 0.6454730720903336 0  2.625971869228799 0.2251151539511752 0  2.488888943771037 0.4358340908500916 0  1.987917074547987 0.4272252878450552 0  1.625029426183959 1.071805271621142 0  1.869578189051475 1.078485773982256 0  1.374999999996555 1.783493649054522 0  1.124999999997284 1.783493649054522 0  2.875971869227065 0.2251151539511752 0  2.107495263591629 0.6396856580431112 0  3.015792501116626 0.4196614179880387 0  2.969613052430358 0.6250747089108117 0  3.233461815094239 0.5945058189965 0  0.9853413463120082 1.590382185518634 0  1.035546895970196 1.383691542971953 0  0.7708882422852851 1.407086430381543 0  2.75990226598216 0.6667537595204404 0  2.977571579959774 0.8415981605289016 0  1.039841703361155 1.17606766607173 0  2.17335322224671 1.372740534668087 0  1.949346420678222 1.243213169066653 0  3.776304173319237 1.106874217362773 0  3.776304173319237 1.35687421736106 0  3.139820631890947 0.1945462640368635 0  3.389820631889256 0.1945462640368635 0  0.2236983289068 0.892985735184491 0  0.2236983289068 0.6429857351852091 0  0.8603413463123726 1.806888536464112 0  0.610341346313096 1.806888536464112 0  1.874999999995129 1.847050324430216 0  1.379324233568866 0.9981559909373798 0  1.624999999995837 1.847050324430216 0  3.566987298106149 0.1830127018928641 0  3.816987298107147 0.1830127018928641 0  3.816987298107128 1.566987298107743 0  3.816987298107128 1.816987298107397 0  0.1830127018932576 0.1830127018928213 0  0.4330127018942981 0.1830127018928213 0  0.1830127018932576 0.4330127018922334 0  3.566987298106469 1.816987298107397 0  0.4330127018920781 1.816987298107172 0  0.1830127018925305 1.816987298107172 0  0.1830127018925305 1.566987298106514 0  3.816987298107147 0.4330127018939045 0  2.304262186934561 0.616816807521863 0  2.567316981616268 0.6312130245741218 0  2.575275509145684 0.8477364761922117 0  3.593291471426365 1.42386151546811 0  0.4067110308000575 0.5759984370786184 0  3.4568079299974 0.3775589659297276 0  0.5433540482060789 1.623875834571284 0  2.885289318557399 1.035892870065195 0  2.650658017317971 1.
[...]
<PointData  Vectors="f"> 
<DataArray  type="Float64"  Name="f"  NumberOfComponents="3" format="ascii">2.2983005500604664e-03 -4.7693718769516837e-03 0.0000000000000000e+00  2.2662448326947028e-03 4.7699360754222073e-03 0.0000000000000000e+00  3.2013353292141065e-03 -2.2204574143639328e-03 0.0000000000000000e+00  3.3004289003383904e-03 1.8536780503013071e-03 0.0000000000000000e+00  2.3775891002390404e-03 -4.7575745964172095e-03 0.0000000000000000e+00  2.6593655288183961e-03 -4.6865868786942350e-03 0.0000000000000000e+00  3.1410368895785652e-03 -4.5197494937162658e-03 0.0000000000000000e+00  3.7531222645868084e-03 -4.2609556290930349e-03 0.0000000000000000e+00  4.4169701402936457e-03 -3.9351767807354028e-03 0.0000000000000000e+00  5.0701614581066907e-03 -3.5706149226562641e-03 0.0000000000000000e+00  5.6722173538805033e-03 -3.1899528428402163e-03 0.0000000000000000e+00  6.2019320011487498e-03 -2.8080763535142713e-03 0.0000000000000000e+00  6.6481763451605377e-03 -2.4330178667834662e-03 0.0000000000000000e+00  7.0169140765109512e-03 -2.0672880755817093e-03 0.0000000000000000e+00  7.3123523327205762e-03 -1.7110406676526960e-03 0.0000000000000000e+00  7.5414689069462065e-03 -1.3627713311093409e-03 0.0000000000000000e+00  7.7112796288718337e-03 -1.0204724163104587e-03 0.0000000000000000e+00  7.8277365620143449e-03 -6.8220916624333922e-04 0.0000000000000000e+00  7.8952722757768025e-03 -3.4634183887387798e-04 0.0000000000000000e+00  7.9167814426740757e-03 -1.1532589291293121e-05 0.0000000000000000e+00  7.8930100250216954e-03 3.2336238326781137e-04 0.0000000000000000e+00  7.8226674115521831e-03 6.5950116248234751e-04 0.0000000000000000e+00  7.7033997163496052e-03 9.9828473929066070e-04 0.0000000000000000e+00  7.5308882014430345e-03 1.3414156660599907e-03 0.0000000000000000e+00  7.2992334274896232e-03 1.6908912450737132e-03 0.0000000000000000e+00  7.0014525351519636e-03 2.0487954374997473e-03 0.0000000000000000e+00  6.6305142511738357e-03 2.4166979560800617e-03 0.0000000000000000e+00  6.1822413042198670e-03 2.7945465374576341e-03 0.0000000000000000e+00  5.6488789738896039e-03 3.1790311110939272e-03 0.0000000000000000e+00  5.0442729795660193e-03 3.5623123645960259e-03 0.0000000000000000e+00  4.3890041524636842e-03 3.9293563740310832e-03 0.0000000000000000e+00  3.7235521763851202e-03 4.2573437501393424e-03 0.0000000000000000e+00  3.1103102503665116e-03 4.5179510767429688e-03 0.0000000000000000e+00  2.6278801078071920e-03 4.6861214433328848e-03 0.0000000000000000e+00  2.3456869446177465e-03 4.7579086143187555e-03 0.0000000000000000e+00  2.2412712104912559e-03 4.7685740306578879e-03 0.0000000000000000e+00  2.2260772324986184e-03 4.7404466668184916e-03 0.0000000000000000e+00  2.2695758483666940e-03 4.6728662999875404e-03 0.0000000000000000e+00  2.3682724495807561e-03 4.5747421755488902e-03 0.0000000000000000e+00  2.5030731305054526e-03 4.4568545199065090e-03 0.0000000000000000e+00  2.6550686232424438e-03 4.3259861133810853e-03 0.0000000000000000e+00  2.8099771761009823e-03 4.1853126119246976e-03 0.0000000000000000e+00  2.9585830486261364e-03 4.0362610241882566e-03 0.0000000000000000e+00  3.0917006468645140e-03 3.8784963675818833e-03 0.0000000000000000e+00  3.2092028757219298e-03 3.7138377078041003e-03 0.0000000000000000e+00  3.3089784976071315e-03 3.5431756902487383e-03 0.0000000000000000e+00  3.3903612910716674e-03 3.3680029719172972e-03 0.0000000000000000e+00  3.4535844385813032e-03 3.1900558405142331e-03 0.0000000000000000e+00  3.4995085383264122e-03 3.0111123128557112e-03 0.0000000000000000e+00  3.5294096573212745e-03 2.8328372268981608e-03 0.0000000000000000e+00  3.5447908605957105e-03 2.6566694754409708e-03 0.0000000000000000e+00  3.5478887269157723e-03 2.4838000889878284e-03 0.0000000000000000e+00  3.5399780390008404e-03 2.3153628851770879e-03 0.0000000000000000e+00  3.5228887877189132e-03 2.1520897571337730e-03 0.0000000000000000e+00  3.4982484586655030e-03 1.9944827776370157e-03 0.0000000000000000e+00  3.4675298466453233e-03 1.8428399082607864e-03 0.0000000000000000e+00  3.4320405354151184e-03 1.6973218327404598e-03 0.0000000000000000e+00  3.3928955138050323e-03 1.5580096605289433e-03 0.0000000000000000e+00  3.3509675295517213e-03 1.4250011007218726e-03 0.0000000000000000e+00  3.3070076558932501e-03 1.2981398553566479e-03 0.0000000000000000e+00  3.2613881423588943e-03 1.1772848490204147e-03 0.0000000000000000e+00  3.2146363469566647e-03 1.0622441325335579e-03 0.0000000000000000e+00  3.1672913682242285e-03 9.5282139905011410e-04 0.0000000000000000e+00  3.1199390307455372e-03 8.4881530601487441e-04 0.0000000000000000e+00  3.0732296737430633e-03 7.4998733102606271e-04 0.0000000000000000e+00  3.0278863983199287e-03 6.5602744383814874e-04 0.0000000000000000e+00  2.9847183570409653e-03 5.6651708981131539e-04 0.0000000000000000e+00  2.9445467697296274e-03 4.8121644876040261e-04 0.0000000000000000e+00  2.9081618358402384e-03 3.9967406713844995e-04 0.0000000000000000e+00  2.8761097604166740e-03 3.2150738130635846e-04 0.0000000000000000e+00  2.8487619066625992e-03 2.4621267093459715e-04 0.0000000000000000e+00  2.8263637370989987e-03 1.7319559534044059e-04 0.0000000000000000e+00  2.8090666962544458e-03 1.0181397521867248e-04 0.0000000000000000e+00  2.7969406868620737e-03 3.1416403963313943e-05 0.0000000000000000e+00  2.7899847133424451e-03 -3.8643642144686026e-05 0.0000000000000000e+00  2.7880403365999505e-03 -1.0896693815633929e-04 0.0000000000000000e+00  2.7910711089356153e-03 -1.8015463316723427e-04 0.0000000000000000e+00  2.7989167543897697e-03 -2.5278159802136929e-04 0.0000000000000000e+00  2.8113922015097826e-03 -3.2741558278333001e-04 0.0000000000000000e+00  2.8282748972114128e-03 -4.0461367643198124e-04 0.0000000000000000e+00  2.8492872256381538e-03 -4.8492856305933015e-04 0.0000000000000000e+00  2.8740811498557672e-03 -5.6890031807625490e-04 0.0000000000000000e+00  2.9022150186140704e-03 -6.5704160822058601e-04 0.0000000000000000e+00  2.9331380738066770e-03 -7.4982570983052506e-04 0.0000000000000000e+00  2.9661926516722802e-03 -8.4764099582483100e-04 0.0000000000000000e+00  3.0006215479298319e-03 -9.5076977112310685e-04 0.0000000000000000e+00  3.0355774223737907e-03 -1.0593017254064117e-03 0.0000000000000000e+00  3.0701496902162686e-03 -1.1730626593879530e-03 0.0000000000000000e+00  3.1033980087683739e-03 -1.2915490879623662e-03 0.0000000000000000e+00  3.1344011731606961e-03 -1.4138257623342548e-03 0.0000000000000000e+00  3.1623862258335889e-03 -1.5384513354427705e-03 0.0000000000000000e+00  3.1860147650890590e-03 -1.6632217809501829e-03 0.0000000000000000e+00  3.2050179455229552e-03 -1.7853465194122356e-03 0.0000000000000000e+00  3.2187241984969785e-03 -1.9012426163030288e-03 0.0000000000000000e+00  3.2266367531574099e-03 -2.0063772831519677e-03 0.0000000000000000e+00  3.2280938172182592e-03 -2.0955394452823396e-03 0.0000000000000000e+00  3.2223365268126821e-03 -2.1634884791506713e-03 0.0000000000000000e+00  3.2103136449953694e-03 -2.2059611527780530e-03 0.0000000000000000e+00  3.2015805982754139e-03 -2.2325604505517940e-03 0.0000000000000000e+00  3.2219788162245471e-03 -2.2537657554722373e-03 0.0000000000000000e+00  3.2682381627326070e-03 -2.2685033450458090e-03 0.0000000000000000e+00  3.3367013263594413e-03 -2.2662740487221374e-03 0.0000000000000000e+00  3.4219085109736870e-03 -2.2401166041898452e-03 0.0000000000000000e+00  3.5182518445843092e-03 -2.1857262903315728e-03 0.0000000000000000e+00  3.6207284906618975e-03 -2.1007500862398974e-03 0.0000000000000000e+00  3.7254150444483627e-03 -1.9843091895796233e-03 0.0000000000000000e+00  3.8298339740101502e-03 -1.8359838199509299e-03 0.0000000000000000e+00  3.9298705293863145e-03 -1.6583653532329943e-03 0.0000000000000000e+00  4.0217987697807999e-03 -1.4540494755726308e-03 0.0000000000000000e+00  4.1029156043846009e-03 -1.2265051311924572e-03 0.0000000000000000e+00  4.1710210592938992e-03 -9.7983499377610910e-04 0.0000000000000000e+00  4.2242620528808407e-03 -7.1856906408861501e-04 0.0000000000000000e+00  4.2611090815689147e-03 -4.4751863603518350e-04 0.0000000000000000e+00  4.2803936588399830e-03 -1.7170998071004191e-04 0.0000000000000000e+00  4.2813407169199902e-03 1.0372697032067025e-04 0.0000000000000000e+00  4.2633375544883700e-03 3.7383948036496877e-04 0.0000000000000000e+00  4.2267369045547853e-03 6.3371204669104841e-04 0.0000000000000000e+00  4.1723934878453170e-03 8.7857102212437045e-04 0.0000000000000000e+00  4.1018043054073883e-03 1.1039328402929201e-03 0.0000000000000000e+00  4.0172160425728069e-03 1.3057365163564123e-03 0.0000000000000000e+00  3.9216669413808794e-03 1.4805566419872557e-03 0.0000000000000000e+00  3.8194495709375164e-03 1.6258584597678189e-03 0.0000000000000000e+00  3.7164796532175763e-03 1.7405334513202382e-03 0.0000000000000000e+00  3.6149081285400571e-03 1.8238394060532998e-03 0.0000000000000000e+00  3.5190052504073788e-03 1.8767798960347445e-03 0.0000000000000000e+00  3.4341289577916210e-03 1.9017156241269329e-03 0.0000000000000000e+00  3.3660847248743143e-03 1.9029506682856044e-03 0.0000000000000000e+00  3.3203639623456249e-03 1.8874720615173163e-03 0.0000000000000000e+00  3.3004892218194445e-03 1.8658240206158761e-03 0.0000000000000000e+00  3.3092925581242006e-03 1.8392454334573791e-03 0.0000000000000000e+00  3.3206809065765490e-03 1.7973317628779031e-03 0.0000000000000000e+00  3.3252463746241776e-03 1.7304173952904511e-03 0.0000000000000000e+00  3.3219654209548847e-03 1.6428256627500531e-03 0.0000000000000000e+00  3.3115270208775743e-03 1.5398985019944660e-03 0.0000000000000000e+00  3.2945302245369614e-03 1.4269912358372127e-03 0.0000000000000000e+00  3.2714285705741698e-03 1.3088280044503660e-03 0.0000000000000000e+00  3.2428771563370305e-03 1.1892495339216331e-03 0.0000000000000000e+00  3.2087539359559290e-03 1.0715352713704747e-03 0.0000000000000000e+00  3.1708927581698566e-03 9.5753739708842329e-04 0.0000000000000000e+00  3.1301880423040981e-03 8.4872623708118157e-04 0.0000000000000000e+00  3.0877696349811815e-03 7.4605426492944265e-04 0.0000000000000000e+00  3.0448181530360777e-03 6.5001927065656991e-04 0.0000000000000000e+00  3.0025088355277213e-03 5.6073481282126766e-04 0.0000000000000000e+00  2.9619638904579766e-03 4.7798968993830382e-04 0.0000000000000000e+00  2.9242584468834845e-03 4.0132789385718666e-04 0.0000000000000000e+00  2.8903150275782791e-03 3.2997267274043019e-04 0.0000000000000000e+00  2.8609836298655257e-03 2.6343177841865783e-04 0.0000000000000000e+00  2.8368758985889684e-03 2.0098130438230328e-04 0.0000000000000000e+00  2.8184134708930542e-03 1.4185445182634846e-04 0.0000000000000000e+00  2.8058696565820599e-03 8.5252340130516040e-05 0.0000000000000000e+00  2.7993887869259791e-03 3.0377427252217479e-05 0.0000000000000000e+00  2.7990047734836165e-03 -2.3549488477870784e-05 0.0000000000000000e+00  2.8046385029258424e-03 -7.7272785587929792e-05 0.0000000000000000e+00  2.8160461479442892e-03 -1.3149436950829493e-04 0.0000000000000000e+00  2.8330532489567765e-03 -1.8691898702698670e-04 0.0000000000000000e+00  2.8553734084790319e-03 -2.4422372672398910e-04 0.0000000000000000e+00  2.8827181418643166e-03 -3.0403354034007763e-04 0.0000000000000000e+00  2.9147601405108588e-03 -3.6692714201394376e-04 0.0000000000000000e+00  2.9511468589809662e-03 -4.3344627999789242e-04 0.0000000000000000e+00  2.9914961653277200e-03 -5.0409956573702400e-04 0.0000000000000000e+00  3.0353944695448048e-03 -5.7935135640337576e-04 0.0000000000000000e+00  3.0823882585425040e-03 -6.5974645659517574e-04 0.0000000000000000e+00  3.1319839779307928e-03 -7.4559269109258051e-04 0.0000000000000000e+00  3.1836190990365428e-03 -8.3727255409430745e-04 0.0000000000000000e+00  3.2366750601969287e-03 -9.3513422755819322e-04 0.0000000000000000e+00  3.2904682993689562e-03 -1.0394990059446139e-03 0.0000000000000000e+00  3.3442408429928709e-03 -1.1506506488871402e-03 0.0000000000000000e+00  3.3971533859194665e-03 -1.2688270463605998e-03 0.0000000000000000e+00  3.4482860259285324e-03 -1.3942094340367191e-03 0.0000000000000000e+00  3.4966277092337459e-03 -1.5269058705358371e-03 0.0000000000000000e+00  3.5410842213507857e-03 -1.6669278550163428e-03 0.0000000000000000e+00  3.5804531239668623e-03 -1.8141800810813895e-03 0.0000000000000000e+00  3.6134419838577065e-03 -1.9684330225839489e-03 0.0000000000000000e+00  3.6386684119047233e-03 -2.1292995600272202e-03 0.0000000000000000e+00  3.6546753823906474e-03 -2.2962199721250909e-03 0.0000000000000000e+00  3.6599479596093132e-03 -2.4684356260577744e-03 0.0000000000000000e+00  3.6529490849494819e-03 -2.6449777013002646e-03 0.0000000000000000e+00  3.6321215232664999e-03 -2.8246590428606063e-03 0.0000000000000000e+00  3.5960462980288961e-03 -3.0060785635963086e-03 0.0000000000000000e+00  3.5434286241289052e-03 -3.1876566997379990e-03 0.0000000000000000e+00  3.4732443086249558e-03 -3.3676608441933196e-03 0.0000000000000000e+00  3.3848674247418100e-03 -3.5443092159626426e-03 0.0000000000000000e+00  3.2782498137242447e-03 -3.7159064537131267e-03 0.0000000000000000e+00  3.1541527838175490e-03 -3.8810220221760566e-03 0.0000000000000000e+00  3.0144663437559832e-03 -4.0387844356382227e-03 0.0000000000000000e+00  2.8608158198398918e-03 -4.1876273256713989e-03 0.0000000000000000e+00  2.7012794961849195e-03 -4.3277844970467591e-03 0.0000000000000000e+00  2.5451711834452149e-03 -4.4580392730604271e-03 0.0000000000000000e+00  2.4068699450612934e-03 -4.5753284113323432e-03 0.0000000000000000e+00  2.3053624527518187e-03 -4.6729423090079471e-03 0.0000000000000000e+00  2.2597989296649439e-03 -4.7401424998003002e-03 0.0000000000000000e+00  2.2737295896643130e-03 -4.7680478897052124e-03 0.0000000000000000e+00  2.8476358288140979e-03 7.9468505795389057e-05 0.0000000000000000e+00  3.3677862239310328e-03 -7.5015037085135602e-04 0.0000000000000000e+00  3.8495287287595155e-03 1.7063677459784883e-03 0.0000000000000000e+00  2.9243258175570799e-03 2.4777595474162066e-04 0.0000000000000000e+00  3.1093561995730644e-03 -8.9947512230307549e-04 0.0000000000000000e+00  4.5644987840266727e-03 -2.9955149630990375e-03 0.0000000000000000e+00  3.6623655727136720e-03 6.5609846382989282e-04 0.0000000000000000e+00  7.0959971957653663e-03 1.6916207347011066e-03 0.0000000000000000e+00  3.9929907304385405e-03 -1.6877642771479687e-03 0.0000000000000000e+00  3.9815824762213974e-03 -3.7220867225115048e-04 0.0000000000000000e+00  3.2225068148773175e-03 -9.6869348071872076e-05 0.0000000000000000e+00  3.3937202910720131e-03 4.9651682974679895e-04 0.0000000000000000e+00  5.3609299633983936e-03 -9.8434779100170186e-04 0.0000000000000000e+00  2.8698603711613166e-03 -2.6049535485017270e-04 0.0000000000000000e+00  3.0192862610251979e-03 -2.9206141075793383e-04 0.0000000000000000e+00  2.9362110824108071e-03 -3.0521997190486192e-05 0.0000000000000000e+00  2.9509814208448460e-03 -2.4802662863247950e-04 0.0000000000000000e+00  3.1735883865384928e-03 6.4416581398668018e-04 0.0000000000000000e+00  3.5498125451481131e-03 -7.9314584971780034e-04 0.0000000000000000e+00  4.3271125531932344e-03 3.1506070484817656e-03 0.0000000000000000e+00  7.2234555200349961e-03 -1.3428197120016290e-03 0.0000000000000000e+00  2.9481662613792489e-03 -4.8750260776543825e-05 0.0000000000000000e+00  3.2330487238510287e-03 8.7635703106284210e-04 0.0000000000000000e+00  4.5395060662926957e-03 5.5744797851651183e-04 0.0000000000000000e+00  3.4642455996503774e-03 1.3534905416350211e-03 0.0000000000000000e+00  3.3740517463482071e-03 -1.7164689427071193e-03 0.0000000000000000e+00  4.5690083692849605e-03 3.8018101555586103e-03 0.0000000000000000e+00  4.6088471440115094e-03 -3.8159412778674203e-03 0.0000000000000000e+00  3.1295072586572646e-03 7.7604962001833090e-05 0.0000000000000000e+00  5.9109194961534809e-03 1.1310914324753011e-03 0.0000000000000000e+00  2.9615826183013649e-03 -4.2007625250312496e-05 0.0000000000000000e+00  3.0767467384130295e-03 1.3877761920386887e-04 0.0000000000000000e+00  6.3289020153974281e-03 -1.2812001060736812e-03 0.0000000000000000e+00  6.9314626508684314e-03 -8.2873191418347350e-05 0.0000000000000000e+00  5.8544265746183852e-03 -1.0583646564388086e-05 0.0000000000000000e+00  3.2055109718524548e-03 -5.0834931180433686e-04 0.0000000000000000e+00  3.3296013814817361e-03 -2.1115303178333459e-04 0.0000000000000000e+00  3.0727553135251381e-03 -1.6099221611447798e-04 0.0000000000000000e+00  5.1984600277829559e-03 -2.0372400971664039e-03 0.0000000000000000e+00  5.9307904369930164e-03 -2.4611924039621871e-03 0.0000000000000000e+00  3.0621375265689065e-03 -5.6066982791564139e-04 0.0000000000000000e+00  3.2834484500902641e-03 -9.5217066787190634e-04 0.0000000000000000e+00  3.6654862392266783e-03 1.0143956416335596e-03 0.0000000000000000e+00  3.8607304140700826e-03 5.8533437050442756e-04 0.0000000000000000e+00  4.2230870205192776e-03 1.2313098869864629e-03 0.0000000000000000e+00  3.4956258475756685e-03 1.2747539707390141e-03 0.0000000000000000e+00  3.3012266293764815e-03 7.2606350712343026e-04 0.0000000000000000e+00  3.1122064780033970e-03 4.0145340709335259e-04 0.0000000000000000e+00  3.0562509632536925e-03 5.1622068056767412e-04 0.0000000000000000e+00  3.6658790983706605e-03 -8.8097430194040066e-05 0.0000000000000000e+00  3.3556003960443568e-03 3.0586204261112091e-04 0.0000000000000000e+00  7.5887167349511691e-03 1.7632329542902563e-04 0.0000000000000000e+00  6.5766291563036120e-03 1.4858651369352646e-03 0.0000000000000000e+00  3.8731557089470270e-03 1.2236658792457726e-03 0.0000000000000000e+00  4.0776781438506514e-03 3.8525764524173793e-04 0.0000000000000000e+00  4.2947589245276516e-03 -2.3295262763330634e-03 0.0000000000000000e+00  4.5919442850733657e-03 -1.5298244479207115e-03 0.0000000000000000e+00  3.6697975303804074e-03 -1.1588111959603823e-03 0.0000000000000000e+00  4.0852965398491450e-03 -1.0221715404761206e-03 0.0000000000000000e+00  3.6446695615405390e-03 -6.6250506201495749e-04 0.0000000000000000e+00  2.9434199014991332e-03 -3.0899761985304859e-04 0.0000000000000000e+00  2.9453582630981200e-03 -1.5184402334397721e-04 0.0000000000000000e+00  2.8945632474849090e-03 -1.1787072471603971e-04 0.0000000000000000e+00  3.3949766899148332e-03 -1.1057557078210070e-03 0.0000000000000000e+00  3.1641347712848805e-03 -7.0935771624504968e-04 0.0000000000000000e+00  2.8475043585742812e-03 4.6297510287816660e-07 0.0000000000000000e+00  2.9216988549842435e-03 7.8812589844527839e-05 0.0000000000000000e+00  6.9228915401489217e-03 2.2077601810504273e-03 0.0000000000000000e+00  7.8146252110925327e-03 7.5560507172609968e-04 0.0000000000000000e+00  3.6203938071783432e-03 -1.6172246248279457e-03 0.0000000000000000e+00  2.9605221117305043e-03 -5.3843129061329690e-04 0.0000000000000000e+00  3.7865087975036044e-03 -2.9737897609990538e-03 0.0000000000000000e+00  3.7794692851491236e-03 -2.2498342312256194e-03 0.0000000000000000e+00  2.9788638193253571e-03 -4.2226578545273623e-04 0.0000000000000000e+00  2.8495261461964072e-03 -1.8600014332584001e-04 0.0000000000000000e+00  3.1420063359458004e-03 -1.2590274204857710e-03 0.0000000000000000e+00  2.9908142420780365e-03 -8.1299404891575354e-04 0.0000000000000000e+00  2.8686512222312341e-03 -4.6136922453981306e-04 0.0000000000000000e+00  2.8288495085196669e-03 1.2582594339625151e-04 0.0000000000000000e+00  2.8066391044707559e-03 -1.6979713013830385e-04 0.0000000000000000e+00  4.5983320797080693e-03 -6.4161262083647734e-04 0.0000000000000000e+00  2.9402636451916547e-03 4.1194255880858517e-04 0.0000000000000000e+00  3.5948100132547345e-03 -3.6989340216923364e-03 0.0000000000000000e+00  3.5308365520707445e-03 -2.0634261123569168e-04 0.0000000000000000e+00  3.3129568465158354e-03 -3.9393633233124315e-04 0.0000000000000000e+00  2.8074450432628785e-03 2.5368514326814237e-05 0.0000000000000000e+00  2.8466102854670626e-03 -6.5894510577891614e-05 0.0000000000000000e+00  3.1259277111941410e-03 -4.6294975658860962e-04 0.0000000000000000e+00  3.7150393600269989e-03 1.8071284971395957e-04 0.0000000000000000e+00  3.3402737077011719e-03 1.4218489486073283e-04 0.0000000000000000e+00  3.500